 vasp.6.4.1 05Apr23 (build Jan 22 2025 15:28:53) complex                        
  
 executed on             LinuxIFC date 2025.02.20  17:32:46
 running    2 mpi-ranks, with   16 threads/rank, on    1 nodes
 distrk:  each k-point on    2 cores,    1 groups
 distr:  one band on NCORE=   1 cores,    2 groups


--------------------------------------------------------------------------------------------------------


 INCAR:
   SYSTEM = H2O_TiO2
   ENMAX = 400
   ISMEAR = 2
   SIGMA = 0.05
   EDIFF = 1e-6
   EDIFFG = -0.05
   IBRION = 2
   POTIM = 0.5
   NSW = 200

 POTCAR:    PAW_PBE Ti 08Apr2002                  
 POTCAR:    PAW_PBE O 08Apr2002                   
 POTCAR:    PAW_PBE H 15Jun2001                   
 POTCAR:    PAW_PBE Ti 08Apr2002                  
   VRHFIN =Ti: d3 s1                                                                                
   LEXCH  = PE                                                                                      
   EATOM  =    94.7928 eV,    6.9671 Ry                                                             
                                                                                                    
   TITEL  = PAW_PBE Ti 08Apr2002                                                                    
   LULTRA =        F    use ultrasoft PP ?                                                          
   IUNSCR =        1    unscreen: 0-lin 1-nonlin 2-no                                               
   RPACOR =    2.200    partial core radius                                                         
   POMASS =   47.880; ZVAL   =    4.000    mass and valenz                                          
   RCORE  =    2.800    outmost cutoff radius                                                       
   RWIGS  =    2.500; RWIGS  =    1.323    wigner-seitz radius (au A)                               
   ENMAX  =  178.330; ENMIN  =  133.747 eV                                                          
   RCLOC  =    2.215    cutoff for local pot                                                        
   LCOR   =        T    correct aug charges                                                         
   LPAW   =        T    paw PP                                                                      
   EAUG   =  328.883                                                                                
   DEXC   =    0.000                                                                                
   RMAX   =    2.868    core radius for proj-oper                                                   
   RAUG   =    1.300    factor for augmentation sphere                                              
   RDEP   =    2.885    radius for radial grids                                                     
   RDEPT  =    2.320    core radius for aug-charge                                                  
                                                                                                    
   Atomic configuration                                                                             
    9 entries                                                                                       
     n  l   j            E        occ.                                                              
     1  0  0.50     -4865.3608   2.0000                                                             
     2  0  0.50      -533.1367   2.0000                                                             
     2  1  1.50      -440.5031   6.0000                                                             
     3  0  0.50       -59.3186   2.0000                                                             
     3  1  1.50       -35.7012   6.0000                                                             
     3  2  2.50        -1.9157   3.0000                                                             
     4  0  0.50        -3.7291   1.0000                                                             
     4  1  1.50        -4.0817   0.0000                                                             
     4  3  2.50        -1.3606   0.0000                                                             
   Description                                                                                      
     l       E           TYP  RCUT    TYP  RCUT                                                     
     2     -1.9156924     23  2.800                                                                 
     2     -0.4062961     23  2.800                                                                 
     0     -3.7290832     23  2.800                                                                 
     0     20.4087390     23  2.800                                                                 
     1     -5.4423304     23  2.800                                                                 
  local pseudopotential read in
  partial core-charges read in
  partial kinetic energy density read in
  atomic valenz-charges read in
  non local Contribution for L=           2  read in
    real space projection operators read in
  non local Contribution for L=           2  read in
    real space projection operators read in
  non local Contribution for L=           0  read in
    real space projection operators read in
  non local Contribution for L=           0  read in
    real space projection operators read in
  non local Contribution for L=           1  read in
    real space projection operators read in
    PAW grid and wavefunctions read in
 
   number of l-projection  operators is LMAX  =           5
   number of lm-projection operators is LMMAX =          15
 
 POTCAR:    PAW_PBE O 08Apr2002                   
   VRHFIN =O: s2p4                                                                                  
   LEXCH  = PE                                                                                      
   EATOM  =   432.3788 eV,   31.7789 Ry                                                             
                                                                                                    
   TITEL  = PAW_PBE O 08Apr2002                                                                     
   LULTRA =        F    use ultrasoft PP ?                                                          
   IUNSCR =        1    unscreen: 0-lin 1-nonlin 2-no                                               
   RPACOR =    1.200    partial core radius                                                         
   POMASS =   16.000; ZVAL   =    6.000    mass and valenz                                          
   RCORE  =    1.520    outmost cutoff radius                                                       
   RWIGS  =    1.550; RWIGS  =    0.820    wigner-seitz radius (au A)                               
   ENMAX  =  400.000; ENMIN  =  300.000 eV                                                          
   ICORE  =        2    local potential                                                             
   LCOR   =        T    correct aug charges                                                         
   LPAW   =        T    paw PP                                                                      
   EAUG   =  605.392                                                                                
   DEXC   =    0.000                                                                                
   RMAX   =    1.553    core radius for proj-oper                                                   
   RAUG   =    1.300    factor for augmentation sphere                                              
   RDEP   =    1.550    radius for radial grids                                                     
   RDEPT  =    1.329    core radius for aug-charge                                                  
                                                                                                    
   Atomic configuration                                                                             
    4 entries                                                                                       
     n  l   j            E        occ.                                                              
     1  0  0.50      -514.6923   2.0000                                                             
     2  0  0.50       -23.9615   2.0000                                                             
     2  1  0.50        -9.0305   4.0000                                                             
     3  2  1.50        -9.5241   0.0000                                                             
   Description                                                                                      
     l       E           TYP  RCUT    TYP  RCUT                                                     
     0    -23.9615318     23  1.200                                                                 
     0     -9.5240782     23  1.200                                                                 
     1     -9.0304911     23  1.520                                                                 
     1      8.1634956     23  1.520                                                                 
     2     -9.5240782      7  1.500                                                                 
  local pseudopotential read in
  partial core-charges read in
  partial kinetic energy density read in
  kinetic energy density of atom read in
  atomic valenz-charges read in
  non local Contribution for L=           0  read in
    real space projection operators read in
  non local Contribution for L=           0  read in
    real space projection operators read in
  non local Contribution for L=           1  read in
    real space projection operators read in
  non local Contribution for L=           1  read in
    real space projection operators read in
    PAW grid and wavefunctions read in
 
   number of l-projection  operators is LMAX  =           4
   number of lm-projection operators is LMMAX =           8
 
 POTCAR:    PAW_PBE H 15Jun2001                   
   VRHFIN =H: ultrasoft test                                                                        
   LEXCH  = PE                                                                                      
   EATOM  =    12.4884 eV,    0.9179 Ry                                                             
                                                                                                    
   TITEL  = PAW_PBE H 15Jun2001                                                                     
   LULTRA =        F    use ultrasoft PP ?                                                          
   IUNSCR =        0    unscreen: 0-lin 1-nonlin 2-no                                               
   RPACOR =    0.000    partial core radius                                                         
   POMASS =    1.000; ZVAL   =    1.000    mass and valenz                                          
   RCORE  =    1.100    outmost cutoff radius                                                       
   RWIGS  =    0.700; RWIGS  =    0.370    wigner-seitz radius (au A)                               
   ENMAX  =  250.000; ENMIN  =  200.000 eV                                                          
   RCLOC  =    0.701    cutoff for local pot                                                        
   LCOR   =        T    correct aug charges                                                         
   LPAW   =        T    paw PP                                                                      
   EAUG   =  400.000                                                                                
   RMAX   =    1.123    core radius for proj-oper                                                   
   RAUG   =    1.200    factor for augmentation sphere                                              
   RDEP   =    1.112    radius for radial grids                                                     
   RDEPT  =    0.926    core radius for aug-charge                                                  
                                                                                                    
   Atomic configuration                                                                             
    2 entries                                                                                       
     n  l   j            E        occ.                                                              
     1  0  0.50        -6.4927   1.0000                                                             
     2  1  0.50        -3.4015   0.0000                                                             
   Description                                                                                      
     l       E           TYP  RCUT    TYP  RCUT                                                     
     0     -6.4927494     23  1.100                                                                 
     0      6.8029130     23  1.100                                                                 
     1     -4.0817478     23  1.100                                                                 
  local pseudopotential read in
  atomic valenz-charges read in
  non local Contribution for L=           0  read in
    real space projection operators read in
  non local Contribution for L=           0  read in
    real space projection operators read in
  non local Contribution for L=           1  read in
    real space projection operators read in
    PAW grid and wavefunctions read in
 
   number of l-projection  operators is LMAX  =           3
   number of lm-projection operators is LMMAX =           5
 
  PAW_PBE Ti 08Apr2002                  :
 energy of atom  1       EATOM=  -94.7928
 kinetic energy error for atom=    0.0005 (will be added to EATOM!!)
  PAW_PBE O 08Apr2002                   :
 energy of atom  2       EATOM= -432.3788
 kinetic energy error for atom=    0.1156 (will be added to EATOM!!)
  PAW_PBE H 15Jun2001                   :
 energy of atom  3       EATOM=  -12.4884
 kinetic energy error for atom=    0.0098 (will be added to EATOM!!)
 
 
 POSCAR: TiO2+H2O
  positions in direct lattice
  velocities in cartesian coordinates
  No initial velocities read in
 exchange correlation table for  LEXCH =        8
   RHO(1)=    0.500       N(1)  =     2000
   RHO(2)=  100.500       N(2)  =     4000
 


--------------------------------------------------------------------------------------------------------


 ion  position               nearest neighbor table
   1  0.000  0.000  0.000-   5 1.96   6 1.96   3 1.98   4 1.98
   2  0.500  0.500  0.100-   4 1.96   3 1.96   5 1.98   6 1.98
   3  0.304  0.304  0.000-   2 1.96   1 1.98
   4  0.696  0.696  0.000-   2 1.96   1 1.98
   5  0.196  0.804  0.100-   1 1.96   2 1.98
   6  0.804  0.196  0.100-   1 1.96   2 1.98
   7  0.500  0.500  0.315-   8 1.03   9 1.03
   8  0.377  0.623  0.359-   7 1.03
   9  0.623  0.377  0.359-   7 1.03
 
  LATTYP: Found a simple tetragonal cell.
 ALAT       =     4.6194900000
 C/A-ratio  =     3.1992276204
  
  Lattice vectors:
  
 A1 = (   4.6194900000,   0.0000000000,   0.0000000000)
 A2 = (   0.0000000000,   4.6194900000,   0.0000000000)
 A3 = (   0.0000000000,   0.0000000000,  14.7788000000)


Analysis of symmetry for initial positions (statically):
=====================================================================
 Subroutine PRICEL returns:
 Original cell was already a primitive cell.
 

 Routine SETGRP: Setting up the symmetry group for a 
 simple tetragonal supercell.


 Subroutine GETGRP returns: Found  2 space group operations
 (whereof  2 operations were pure point group operations)
 out of a pool of 16 trial point group operations.


The static configuration has the point symmetry C_1h.


Analysis of symmetry for dynamics (positions and initial velocities):
=====================================================================
 Subroutine PRICEL returns:
 Original cell was already a primitive cell.
 

 Routine SETGRP: Setting up the symmetry group for a 
 simple tetragonal supercell.


 Subroutine GETGRP returns: Found  2 space group operations
 (whereof  2 operations were pure point group operations)
 out of a pool of 16 trial point group operations.


The dynamic configuration has the point symmetry C_1h.


Analysis of constrained symmetry for selective dynamics:
=====================================================================
 Subroutine PRICEL returns:
 Original cell was already a primitive cell.
 

 Routine SETGRP: Setting up the symmetry group for a 
 simple tetragonal supercell.


 Subroutine GETGRP returns: Found  2 space group operations
 (whereof  2 operations were pure point group operations)
 out of a pool of 16 trial point group operations.


The constrained configuration has the point symmetry C_1h.


 Subroutine INISYM returns: Found  2 space group operations
 (whereof  2 operations are pure point group operations),
 and found     1 'primitive' translations


----------------------------------------------------------------------------------------

                                     Primitive cell                                     

  volume of cell :     315.3750

  direct lattice vectors                    reciprocal lattice vectors
     4.619490000  0.000000000  0.000000000     0.216474113  0.000000000  0.000000000
     0.000000000  4.619490000  0.000000000     0.000000000  0.216474113  0.000000000
     0.000000000  0.000000000 14.778800000     0.000000000  0.000000000  0.067664492

  length of vectors
     4.619490000  4.619490000 14.778800000     0.216474113  0.216474113  0.067664492

  position of ions in fractional coordinates (direct lattice)
     0.000000000  0.000000000  0.000000000
     0.500000000  0.500000000  0.100000000
     0.303740000  0.303740000  0.000000000
     0.696250000  0.696250000  0.000000000
     0.196250000  0.803740000  0.100000000
     0.803740000  0.196250000  0.100000000
     0.500000000  0.500000000  0.315000000
     0.377200000  0.622800000  0.358810000
     0.622800000  0.377200000  0.358810000

  ion indices of the primitive-cell ions
   primitive index   ion index
                 1           1
                 2           2
                 3           3
                 4           4
                 5           5
                 6           6
                 7           7
                 8           8
                 9           9

----------------------------------------------------------------------------------------

 
 
 KPOINTS: Automatically generated mesh            

Automatic generation of k-mesh.
 Grid dimensions read from file:
 generate k-points for:    5    5    1

 Generating k-lattice:

  Cartesian coordinates                     Fractional coordinates (reciprocal lattice)
     0.043294823  0.000000000  0.000000000     0.200000000  0.000000000  0.000000000
     0.000000000  0.043294823  0.000000000     0.000000000  0.200000000  0.000000000
     0.000000000  0.000000000  0.067664492     0.000000000  0.000000000  1.000000000

  Length of vectors
     0.043294823  0.043294823  0.067664492

  Shift w.r.t. Gamma in fractional coordinates (k-lattice)
     0.000000000  0.000000000  0.000000000

 
 Subroutine IBZKPT returns following result:
 ===========================================
 
 Found      9 irreducible k-points:
 
 Following reciprocal coordinates:
            Coordinates               Weight
  0.000000  0.000000  0.000000      1.000000
  0.200000  0.000000  0.000000      4.000000
  0.400000  0.000000  0.000000      4.000000
  0.200000  0.200000  0.000000      2.000000
 -0.200000  0.200000  0.000000      2.000000
  0.400000  0.200000  0.000000      4.000000
 -0.200000  0.400000  0.000000      4.000000
  0.400000  0.400000  0.000000      2.000000
 -0.400000  0.400000  0.000000      2.000000
 
 Following cartesian coordinates:
            Coordinates               Weight
  0.000000  0.000000  0.000000      1.000000
  0.043295  0.000000  0.000000      4.000000
  0.086590  0.000000  0.000000      4.000000
  0.043295  0.043295  0.000000      2.000000
 -0.043295  0.043295  0.000000      2.000000
  0.086590  0.043295  0.000000      4.000000
 -0.043295  0.086590  0.000000      4.000000
  0.086590  0.086590  0.000000      2.000000
 -0.086590  0.086590  0.000000      2.000000
 


--------------------------------------------------------------------------------------------------------




 Dimension of arrays:
   k-points           NKPTS =      9   k-points in BZ     NKDIM =      9   number of bands    NBANDS=     26
   number of dos      NEDOS =    301   number of ions     NIONS =      9
   non local maximal  LDIM  =      5   non local SUM 2l+1 LMDIM =     15
   total plane-waves  NPLWV =  41472
   max r-space proj   IRMAX =      1   max aug-charges    IRDMAX=   9281
   dimension x,y,z NGX =    24 NGY =   24 NGZ =   72
   dimension x,y,z NGXF=    48 NGYF=   48 NGZF=  144
   support grid    NGXF=    48 NGYF=   48 NGZF=  144
   ions per type =               2   5   2
   NGX,Y,Z   is equivalent  to a cutoff of   8.64,  8.64,  8.10 a.u.
   NGXF,Y,Z  is equivalent  to a cutoff of  17.27, 17.27, 16.20 a.u.

 SYSTEM =  H2O_TiO2                                
 POSCAR =  TiO2+H2O                                

 Startparameter for this run:
   NWRITE =      2    write-flag & timer
   PREC   = normal    normal or accurate (medium, high low for compatibility)
   ISTART =      0    job   : 0-new  1-cont  2-samecut
   ICHARG =      2    charge: 1-file 2-atom 10-const
   ISPIN  =      1    spin polarized calculation?
   LNONCOLLINEAR =      F non collinear calculations
   LSORBIT =      F    spin-orbit coupling
   INIWAV =      1    electr: 0-lowe 1-rand  2-diag
   LASPH  =      F    aspherical Exc in radial PAW
 Electronic Relaxation 1
   ENCUT  =  400.0 eV  29.40 Ry    5.42 a.u.   7.53  7.53 24.10*2*pi/ulx,y,z
   ENINI  =  400.0     initial cutoff
   ENAUG  =  605.4 eV  augmentation charge cutoff
   NELM   =     60;   NELMIN=  2; NELMDL= -5     # of ELM steps 
   EDIFF  = 0.1E-05   stopping-criterion for ELM
   LREAL  =      F    real-space projection
   NLSPLINE    = F    spline interpolate recip. space projectors
   LCOMPAT=      F    compatible to vasp.4.4
   GGA_COMPAT  = T    GGA compatible to vasp.4.4-vasp.4.6
   LMAXPAW     = -100 max onsite density
   LMAXMIX     =    2 max onsite mixed and CHGCAR
   VOSKOWN=      0    Vosko Wilk Nusair interpolation
   ROPT   =    0.00000   0.00000   0.00000
 Ionic relaxation
   EDIFFG = -.5E-01   stopping-criterion for IOM
   NSW    =    200    number of steps for IOM
   NBLOCK =      1;   KBLOCK =    200    inner block; outer block 
   IBRION =      2    ionic relax: 0-MD 1-quasi-New 2-CG
   NFREE  =      1    steps in history (QN), initial steepest desc. (CG)
   ISIF   =      2    stress and relaxation
   IWAVPR =     11    prediction:  0-non 1-charg 2-wave 3-comb
   ISYM   =      2    0-nonsym 1-usesym 2-fastsym
   LCORR  =      T    Harris-Foulkes like correction to forces

   POTIM  = 0.5000    time-step for ionic-motion
   TEIN   =    0.0    initial temperature
   TEBEG  =    0.0;   TEEND  =   0.0 temperature during run
   SMASS  =  -3.00    Nose mass-parameter (am)
   estimated Nose-frequenzy (Omega)   =  0.10E-29 period in steps = 0.13E+47 mass=  -0.488E-27a.u.
   SCALEE = 1.0000    scale energy and forces
   NPACO  =    256;   APACO  = 10.0  distance and # of slots for P.C.
   PSTRESS=    0.0 pullay stress

  Mass of Ions in am
   POMASS =  47.88 16.00  1.00
  Ionic Valenz
   ZVAL   =   4.00  6.00  1.00
  Atomic Wigner-Seitz radii
   RWIGS  =  -1.00 -1.00 -1.00
  virtual crystal weights 
   VCA    =   1.00  1.00  1.00
   NELECT =      40.0000    total number of electrons
   NUPDOWN=      -1.0000    fix difference up-down

 DOS related values:
   EMIN   =  10.00;   EMAX   =-10.00  energy-range for DOS
   EFERMI =   0.00;   METHOD = LEGACY      
   ISMEAR =     2;   SIGMA  =   0.05  broadening in eV -4-tet -1-fermi 0-gaus

 Electronic relaxation 2 (details)
   IALGO  =     38    algorithm
   LDIAG  =      T    sub-space diagonalisation (order eigenvalues)
   LSUBROT=      F    optimize rotation matrix (better conditioning)
   TURBO    =      0    0=normal 1=particle mesh
   IRESTART =      0    0=no restart 2=restart with 2 vectors
   NREBOOT  =      0    no. of reboots
   NMIN     =      0    reboot dimension
   EREF     =   0.00    reference energy to select bands
   IMIX   =      4    mixing-type and parameters
     AMIX     =   0.40;   BMIX     =  1.00
     AMIX_MAG =   1.60;   BMIX_MAG =  1.00
     AMIN     =   0.10
     WC   =   100.;   INIMIX=   1;  MIXPRE=   1;  MAXMIX= -45

 Intra band minimization:
   WEIMIN = 0.0010     energy-eigenvalue tresh-hold
   EBREAK =  0.96E-08  absolut break condition
   DEPER  =   0.30     relativ break condition  

   TIME   =   0.40     timestep for ELM

  volume/ion in A,a.u.               =      35.04       236.47
  Fermi-wavevector in a.u.,A,eV,Ry     =   0.822531  1.554359  9.205126  0.676558
  Thomas-Fermi vector in A             =   1.933883
 
 Write flags
   LWAVE        =      T    write WAVECAR
   LDOWNSAMPLE  =      F    k-point downsampling of WAVECAR
   LCHARG       =      T    write CHGCAR
   LVTOT        =      F    write LOCPOT, total local potential
   LVHAR        =      F    write LOCPOT, Hartree potential only
   LELF         =      F    write electronic localiz. function (ELF)
   LORBIT       =      0    0 simple, 1 ext, 2 COOP (PROOUT), +10 PAW based schemes


 Dipole corrections
   LMONO  =      F    monopole corrections only (constant potential shift)
   LDIPOL =      F    correct potential (dipole corrections)
   IDIPOL =      0    1-x, 2-y, 3-z, 4-all directions 
   EPSILON=  1.0000000 bulk dielectric constant

 Exchange correlation treatment:
   GGA     =    --    GGA type
   LEXCH   =     8    internal setting for exchange type
   LIBXC   =     F    Libxc                    
   VOSKOWN =     0    Vosko Wilk Nusair interpolation
   LHFCALC =     F    Hartree Fock is set to
   LHFONE  =     F    Hartree Fock one center treatment
   AEXX    =    0.0000 exact exchange contribution

 Linear response parameters
   LEPSILON=     F    determine dielectric tensor
   LRPA    =     F    only Hartree local field effects (RPA)
   LNABLA  =     F    use nabla operator in PAW spheres
   LVEL    =     F    velocity operator in full k-point grid
   CSHIFT  =0.1000    complex shift for real part using Kramers Kronig
   OMEGAMAX=  -1.0    maximum frequency
   DEG_THRESHOLD= 0.2000000E-02 threshold for treating states as degnerate
   RTIME   =   -0.100 relaxation time in fs
  (WPLASMAI=    0.000 imaginary part of plasma frequency in eV, 0.658/RTIME)
   DFIELD  = 0.0000000 0.0000000 0.0000000 field for delta impulse in time
 
  Optional k-point grid parameters
   LKPOINTS_OPT  =     F    use optional k-point grid
   KPOINTS_OPT_MODE=     1    mode for optional k-point grid
 
 Orbital magnetization related:
   ORBITALMAG=     F  switch on orbital magnetization
   LCHIMAG   =     F  perturbation theory with respect to B field
   DQ        =  0.001000  dq finite difference perturbation B field
   LLRAUG    =     F  two centre corrections for induced B field
   LBONE     =     F  B-component reconstruction in AE one-centre
   LVGVCALC  =     T  calculate vGv susceptibility
   LVGVAPPL  =     F  apply vGv susceptibility instead of pGv for G=0

 Random number generation:
   RANDOM_GENERATOR = DEFAULT
   PCG_SEED         = not used


--------------------------------------------------------------------------------------------------------


 conjugate gradient relaxation of ions
   using selective dynamics as specified on POSCAR
 charge density and potential will be updated during run
 non-spin polarized calculation
 Variant of blocked Davidson
 Davidson routine will perform the subspace rotation
 perform sub-space diagonalisation
    after iterative eigenvector-optimisation
 modified Broyden-mixing scheme, WC =      100.0
 initial mixing is a Kerker type mixing with AMIX =  0.4000 and BMIX =      1.0000
 Hartree-type preconditioning will be used
 using additional bands            6
 reciprocal scheme for non local part
 use partial core corrections
 calculate Harris-corrections to forces 
   (improved forces if not selfconsistent)
 use gradient corrections 
 use of overlap-Matrix (Vanderbilt PP)
 Methfessel and Paxton  Order N= 2 SIGMA  =   0.05


--------------------------------------------------------------------------------------------------------


  energy-cutoff  :      400.00
  volume of cell :      315.37
      direct lattice vectors                 reciprocal lattice vectors
     4.619490000  0.000000000  0.000000000     0.216474113  0.000000000  0.000000000
     0.000000000  4.619490000  0.000000000     0.000000000  0.216474113  0.000000000
     0.000000000  0.000000000 14.778800000     0.000000000  0.000000000  0.067664492

  length of vectors
     4.619490000  4.619490000 14.778800000     0.216474113  0.216474113  0.067664492


 
 k-points in units of 2pi/SCALE and weight: Automatically generated mesh            
   0.00000000  0.00000000  0.00000000       0.040
   0.04329482  0.00000000  0.00000000       0.160
   0.08658965  0.00000000  0.00000000       0.160
   0.04329482  0.04329482  0.00000000       0.080
  -0.04329482  0.04329482  0.00000000       0.080
   0.08658965  0.04329482  0.00000000       0.160
  -0.04329482  0.08658965  0.00000000       0.160
   0.08658965  0.08658965  0.00000000       0.080
  -0.08658965  0.08658965  0.00000000       0.080
 
 k-points in reciprocal lattice and weights: Automatically generated mesh            
   0.00000000  0.00000000  0.00000000       0.040
   0.20000000  0.00000000  0.00000000       0.160
   0.40000000  0.00000000  0.00000000       0.160
   0.20000000  0.20000000  0.00000000       0.080
  -0.20000000  0.20000000  0.00000000       0.080
   0.40000000  0.20000000  0.00000000       0.160
  -0.20000000  0.40000000  0.00000000       0.160
   0.40000000  0.40000000  0.00000000       0.080
  -0.40000000  0.40000000  0.00000000       0.080
 
 position of ions in fractional coordinates (direct lattice) 
   0.00000000  0.00000000  0.00000000
   0.50000000  0.50000000  0.10000000
   0.30374000  0.30374000  0.00000000
   0.69625000  0.69625000  0.00000000
   0.19625000  0.80374000  0.10000000
   0.80374000  0.19625000  0.10000000
   0.50000000  0.50000000  0.31500000
   0.37720000  0.62280000  0.35881000
   0.62280000  0.37720000  0.35881000
 
 position of ions in cartesian coordinates  (Angst):
   0.00000000  0.00000000  0.00000000
   2.30974500  2.30974500  1.47788000
   1.40312389  1.40312389  0.00000000
   3.21631991  3.21631991  0.00000000
   0.90657491  3.71286889  1.47788000
   3.71286889  0.90657491  1.47788000
   2.30974500  2.30974500  4.65532200
   1.74247163  2.87701837  5.30278123
   2.87701837  1.74247163  5.30278123
 


--------------------------------------------------------------------------------------------------------


 k-point   1 :   0.0000 0.0000 0.0000  plane waves:    5769
 k-point   2 :   0.2000 0.0000 0.0000  plane waves:    5757
 k-point   3 :   0.4000 0.0000 0.0000  plane waves:    5701
 k-point   4 :   0.2000 0.2000 0.0000  plane waves:    5745
 k-point   5 :  -0.2000 0.2000 0.0000  plane waves:    5745
 k-point   6 :   0.4000 0.2000 0.0000  plane waves:    5723
 k-point   7 :  -0.2000 0.4000 0.0000  plane waves:    5723
 k-point   8 :   0.4000 0.4000 0.0000  plane waves:    5718
 k-point   9 :  -0.4000 0.4000 0.0000  plane waves:    5718

 maximum and minimum number of plane-waves per node :      5769     5701

 maximum number of plane-waves:      5769
 maximum index in each direction: 
   IXMAX=    7   IYMAX=    7   IZMAX=   24
   IXMIN=   -7   IYMIN=   -7   IZMIN=  -24


 serial   3D FFT for wavefunctions
 parallel 3D FFT for charge:
    minimum data exchange during FFTs selected (reduces bandwidth)


 total amount of memory used by VASP MPI-rank0    78769. kBytes
=======================================================================

   base      :      30000. kBytes
   nonl-proj :      19525. kBytes
   fftplans  :       5801. kBytes
   grid      :      12395. kBytes
   one-center:         97. kBytes
   wavefun   :      10951. kBytes
 
     INWAV:  cpu time      0.0003: real time      0.0000
 Broyden mixing: mesh for mixing (old mesh)
   NGX = 15   NGY = 15   NGZ = 49
  (NGX  = 48   NGY  = 48   NGZ  =144)
  gives a total of  11025 points

 initial charge density was supplied:
 charge density of overlapping atoms calculated
 number of electron      40.0000000 magnetization 
 keeping initial charge density in first step


--------------------------------------------------------------------------------------------------------


 Maximum index for augmentation-charges         4430 (set IRDMAX)


--------------------------------------------------------------------------------------------------------


 First call to EWALD:  gamma=   0.260
 Maximum number of real-space cells 4x 4x 2
 Maximum number of reciprocal cells 2x 2x 5

    FEWALD:  cpu time      0.0712: real time      0.0045


--------------------------------------- Ionic step        1  -------------------------------------------




--------------------------------------- Iteration      1(   1)  ---------------------------------------


    POTLOK:  cpu time      0.5960: real time      0.0427
    SETDIJ:  cpu time      0.1217: real time      0.0083
     EDDAV:  cpu time      9.3835: real time      0.6043
       DOS:  cpu time      0.0349: real time      0.0023
    --------------------------------------------
      LOOP:  cpu time     10.1364: real time      0.6576

 eigenvalue-minimisations  :   468
 total energy-change (2. order) : 0.4052572E+03  (-0.1362440E+04)
 number of electron      40.0000000 magnetization 
 augmentation part       40.0000000 magnetization 

 Free energy of the ion-electron system (eV)
  ---------------------------------------------------
  alpha Z        PSCENC =        37.65424308
  Ewald energy   TEWEN  =      1732.99227595
  -Hartree energ DENC   =     -3818.58940547
  -exchange      EXHF   =         0.00000000
  -V(xc)+E(xc)   XCENC  =        64.88810336
  PAW double counting   =      1988.04701001    -1916.12987069
  entropy T*S    EENTRO =         0.00079400
  eigenvalues    EBANDS =       -59.46375912
  atomic energy  EATOM  =      2375.85777992
  Solvation  Ediel_sol  =         0.00000000
  ---------------------------------------------------
  free energy    TOTEN  =       405.25717103 eV

  energy without entropy =      405.25637704  energy(sigma->0) =      405.25697253


--------------------------------------------------------------------------------------------------------




--------------------------------------- Iteration      1(   2)  ---------------------------------------


     EDDAV:  cpu time     11.6318: real time      0.7303
       DOS:  cpu time      0.0091: real time      0.0006
    --------------------------------------------
      LOOP:  cpu time     11.6408: real time      0.7309

 eigenvalue-minimisations  :   752
 total energy-change (2. order) :-0.3874543E+03  (-0.3790433E+03)
 number of electron      40.0000000 magnetization 
 augmentation part       40.0000000 magnetization 

 Free energy of the ion-electron system (eV)
  ---------------------------------------------------
  alpha Z        PSCENC =        37.65424308
  Ewald energy   TEWEN  =      1732.99227595
  -Hartree energ DENC   =     -3818.58940547
  -exchange      EXHF   =         0.00000000
  -V(xc)+E(xc)   XCENC  =        64.88810336
  PAW double counting   =      1988.04701001    -1916.12987069
  entropy T*S    EENTRO =         0.00042233
  eigenvalues    EBANDS =      -446.91772185
  atomic energy  EATOM  =      2375.85777992
  Solvation  Ediel_sol  =         0.00000000
  ---------------------------------------------------
  free energy    TOTEN  =        17.80283664 eV

  energy without entropy =       17.80241431  energy(sigma->0) =       17.80273106


--------------------------------------------------------------------------------------------------------




--------------------------------------- Iteration      1(   3)  ---------------------------------------


     EDDAV:  cpu time      9.4432: real time      0.5935
       DOS:  cpu time      0.0045: real time      0.0003
    --------------------------------------------
      LOOP:  cpu time      9.4477: real time      0.5938

 eigenvalue-minimisations  :   568
 total energy-change (2. order) :-0.9971148E+02  (-0.9940014E+02)
 number of electron      40.0000000 magnetization 
 augmentation part       40.0000000 magnetization 

 Free energy of the ion-electron system (eV)
  ---------------------------------------------------
  alpha Z        PSCENC =        37.65424308
  Ewald energy   TEWEN  =      1732.99227595
  -Hartree energ DENC   =     -3818.58940547
  -exchange      EXHF   =         0.00000000
  -V(xc)+E(xc)   XCENC  =        64.88810336
  PAW double counting   =      1988.04701001    -1916.12987069
  entropy T*S    EENTRO =        -0.00000000
  eigenvalues    EBANDS =      -546.62877592
  atomic energy  EATOM  =      2375.85777992
  Solvation  Ediel_sol  =         0.00000000
  ---------------------------------------------------
  free energy    TOTEN  =       -81.90863976 eV

  energy without entropy =      -81.90863976  energy(sigma->0) =      -81.90863976


--------------------------------------------------------------------------------------------------------




--------------------------------------- Iteration      1(   4)  ---------------------------------------


     EDDAV:  cpu time      9.8972: real time      0.6219
       DOS:  cpu time      0.0089: real time      0.0006
    --------------------------------------------
      LOOP:  cpu time      9.9062: real time      0.6225

 eigenvalue-minimisations  :   624
 total energy-change (2. order) :-0.3788558E+01  (-0.3785710E+01)
 number of electron      40.0000000 magnetization 
 augmentation part       40.0000000 magnetization 

 Free energy of the ion-electron system (eV)
  ---------------------------------------------------
  alpha Z        PSCENC =        37.65424308
  Ewald energy   TEWEN  =      1732.99227595
  -Hartree energ DENC   =     -3818.58940547
  -exchange      EXHF   =         0.00000000
  -V(xc)+E(xc)   XCENC  =        64.88810336
  PAW double counting   =      1988.04701001    -1916.12987069
  entropy T*S    EENTRO =         0.00135064
  eigenvalues    EBANDS =      -550.41868455
  atomic energy  EATOM  =      2375.85777992
  Solvation  Ediel_sol  =         0.00000000
  ---------------------------------------------------
  free energy    TOTEN  =       -85.69719775 eV

  energy without entropy =      -85.69854839  energy(sigma->0) =      -85.69753541


--------------------------------------------------------------------------------------------------------




--------------------------------------- Iteration      1(   5)  ---------------------------------------


     EDDAV:  cpu time     10.3385: real time      0.6493
       DOS:  cpu time      0.0093: real time      0.0006
    CHARGE:  cpu time      0.5781: real time      0.0382
    MIXING:  cpu time      0.0464: real time      0.0029
    --------------------------------------------
      LOOP:  cpu time     10.9728: real time      0.6910

 eigenvalue-minimisations  :   656
 total energy-change (2. order) :-0.8084590E-01  (-0.8069462E-01)
 number of electron      39.9999955 magnetization 
 augmentation part        4.6236793 magnetization 

 Broyden mixing:
  rms(total) = 0.34658E+01    rms(broyden)= 0.34651E+01
  rms(prec ) = 0.39010E+01
  weight for this iteration     100.00

 Free energy of the ion-electron system (eV)
  ---------------------------------------------------
  alpha Z        PSCENC =        37.65424308
  Ewald energy   TEWEN  =      1732.99227595
  -Hartree energ DENC   =     -3818.58940547
  -exchange      EXHF   =         0.00000000
  -V(xc)+E(xc)   XCENC  =        64.88810336
  PAW double counting   =      1988.04701001    -1916.12987069
  entropy T*S    EENTRO =         0.00108415
  eigenvalues    EBANDS =      -550.49926396
  atomic energy  EATOM  =      2375.85777992
  Solvation  Ediel_sol  =         0.00000000
  ---------------------------------------------------
  free energy    TOTEN  =       -85.77804365 eV

  energy without entropy =      -85.77912780  energy(sigma->0) =      -85.77831469


--------------------------------------------------------------------------------------------------------




--------------------------------------- Iteration      1(   6)  ---------------------------------------


    POTLOK:  cpu time      0.4789: real time      0.0301
    SETDIJ:  cpu time      0.0536: real time      0.0034
     EDDAV:  cpu time     10.4904: real time      0.6583
       DOS:  cpu time      0.0084: real time      0.0005
    CHARGE:  cpu time      0.3422: real time      0.0215
    MIXING:  cpu time      0.0445: real time      0.0028
    --------------------------------------------
      LOOP:  cpu time     11.4180: real time      0.7166

 eigenvalue-minimisations  :   682
 total energy-change (2. order) : 0.1781553E+02  (-0.2085356E+02)
 number of electron      39.9999992 magnetization 
 augmentation part        7.2913969 magnetization 

 Broyden mixing:
  rms(total) = 0.29568E+01    rms(broyden)= 0.29550E+01
  rms(prec ) = 0.35451E+01
  weight for this iteration     100.00

 eigenvalues of (default mixing * dielectric matrix)
  average eigenvalue GAMMA=   0.5562
  0.5562

 Free energy of the ion-electron system (eV)
  ---------------------------------------------------
  alpha Z        PSCENC =        37.65424308
  Ewald energy   TEWEN  =      1732.99227595
  -Hartree energ DENC   =     -3959.30265614
  -exchange      EXHF   =         0.00000000
  -V(xc)+E(xc)   XCENC  =        74.55537781
  PAW double counting   =      2544.17590782    -2472.42348298
  entropy T*S    EENTRO =         0.00042506
  eigenvalues    EBANDS =      -401.47238666
  atomic energy  EATOM  =      2375.85777992
  Solvation  Ediel_sol  =         0.00000000
  ---------------------------------------------------
  free energy    TOTEN  =       -67.96251613 eV

  energy without entropy =      -67.96294120  energy(sigma->0) =      -67.96262240


--------------------------------------------------------------------------------------------------------




--------------------------------------- Iteration      1(   7)  ---------------------------------------


    POTLOK:  cpu time      0.4227: real time      0.0265
    SETDIJ:  cpu time      0.0473: real time      0.0030
     EDDAV:  cpu time     10.6511: real time      0.6686
       DOS:  cpu time      0.0087: real time      0.0005
    CHARGE:  cpu time      0.3144: real time      0.0197
    MIXING:  cpu time      0.0374: real time      0.0024
    --------------------------------------------
      LOOP:  cpu time     11.4816: real time      0.7207

 eigenvalue-minimisations  :   692
 total energy-change (2. order) :-0.2492733E-01  (-0.2255387E+02)
 number of electron      39.9999964 magnetization 
 augmentation part        4.2683496 magnetization 

 Broyden mixing:
  rms(total) = 0.17293E+01    rms(broyden)= 0.17285E+01
  rms(prec ) = 0.19752E+01
  weight for this iteration     100.00

 eigenvalues of (default mixing * dielectric matrix)
  average eigenvalue GAMMA=   0.9029
  1.4248  0.3811

 Free energy of the ion-electron system (eV)
  ---------------------------------------------------
  alpha Z        PSCENC =        37.65424308
  Ewald energy   TEWEN  =      1732.99227595
  -Hartree energ DENC   =     -3911.42077765
  -exchange      EXHF   =         0.00000000
  -V(xc)+E(xc)   XCENC  =        69.97945549
  PAW double counting   =      2541.43335099    -2470.76531319
  entropy T*S    EENTRO =         0.00112722
  eigenvalues    EBANDS =      -443.71958528
  atomic energy  EATOM  =      2375.85777992
  Solvation  Ediel_sol  =         0.00000000
  ---------------------------------------------------
  free energy    TOTEN  =       -67.98744347 eV

  energy without entropy =      -67.98857068  energy(sigma->0) =      -67.98772527


--------------------------------------------------------------------------------------------------------




--------------------------------------- Iteration      1(   8)  ---------------------------------------


    POTLOK:  cpu time      0.4257: real time      0.0268
    SETDIJ:  cpu time      0.0355: real time      0.0022
     EDDAV:  cpu time      9.7508: real time      0.6126
       DOS:  cpu time      0.0087: real time      0.0005
    CHARGE:  cpu time      0.2819: real time      0.0177
    MIXING:  cpu time      0.0420: real time      0.0027
    --------------------------------------------
      LOOP:  cpu time     10.5448: real time      0.6625

 eigenvalue-minimisations  :   602
 total energy-change (2. order) : 0.4645196E+01  (-0.1020854E+01)
 number of electron      39.9999967 magnetization 
 augmentation part        4.6696837 magnetization 

 Broyden mixing:
  rms(total) = 0.89082E+00    rms(broyden)= 0.89060E+00
  rms(prec ) = 0.10611E+01
  weight for this iteration     100.00

 eigenvalues of (default mixing * dielectric matrix)
  average eigenvalue GAMMA=   1.0284
  0.4142  0.9728  1.6983

 Free energy of the ion-electron system (eV)
  ---------------------------------------------------
  alpha Z        PSCENC =        37.65424308
  Ewald energy   TEWEN  =      1732.99227595
  -Hartree energ DENC   =     -3935.13853544
  -exchange      EXHF   =         0.00000000
  -V(xc)+E(xc)   XCENC  =        71.31600389
  PAW double counting   =      2817.95816190    -2746.64190890
  entropy T*S    EENTRO =         0.00008737
  eigenvalues    EBANDS =      -417.34035513
  atomic energy  EATOM  =      2375.85777992
  Solvation  Ediel_sol  =         0.00000000
  ---------------------------------------------------
  free energy    TOTEN  =       -63.34224735 eV

  energy without entropy =      -63.34233472  energy(sigma->0) =      -63.34226919


--------------------------------------------------------------------------------------------------------




--------------------------------------- Iteration      1(   9)  ---------------------------------------


    POTLOK:  cpu time      0.4340: real time      0.0272
    SETDIJ:  cpu time      0.0349: real time      0.0022
     EDDAV:  cpu time     10.8545: real time      0.6811
       DOS:  cpu time      0.0084: real time      0.0005
    CHARGE:  cpu time      0.2896: real time      0.0183
    MIXING:  cpu time      0.0795: real time      0.0052
    --------------------------------------------
      LOOP:  cpu time     11.7008: real time      0.7345

 eigenvalue-minimisations  :   712
 total energy-change (2. order) : 0.1451875E+01  (-0.1030803E+01)
 number of electron      39.9999973 magnetization 
 augmentation part        5.2029511 magnetization 

 Broyden mixing:
  rms(total) = 0.32500E+00    rms(broyden)= 0.32450E+00
  rms(prec ) = 0.37721E+00
  weight for this iteration     100.00

 eigenvalues of (default mixing * dielectric matrix)
  average eigenvalue GAMMA=   1.0247
  1.5216  1.5216  0.4260  0.6295

 Free energy of the ion-electron system (eV)
  ---------------------------------------------------
  alpha Z        PSCENC =        37.65424308
  Ewald energy   TEWEN  =      1732.99227595
  -Hartree energ DENC   =     -3964.88973181
  -exchange      EXHF   =         0.00000000
  -V(xc)+E(xc)   XCENC  =        72.87064090
  PAW double counting   =      2998.32723155    -2926.79969589
  entropy T*S    EENTRO =         0.00015407
  eigenvalues    EBANDS =      -387.90326977
  atomic energy  EATOM  =      2375.85777992
  Solvation  Ediel_sol  =         0.00000000
  ---------------------------------------------------
  free energy    TOTEN  =       -61.89037198 eV

  energy without entropy =      -61.89052605  energy(sigma->0) =      -61.89041050


--------------------------------------------------------------------------------------------------------




--------------------------------------- Iteration      1(  10)  ---------------------------------------


    POTLOK:  cpu time      0.4227: real time      0.0265
    SETDIJ:  cpu time      0.0353: real time      0.0022
     EDDAV:  cpu time     11.6851: real time      0.7344
       DOS:  cpu time      0.0102: real time      0.0006
    CHARGE:  cpu time      0.5708: real time      0.0382
    MIXING:  cpu time      0.0488: real time      0.0031
    --------------------------------------------
      LOOP:  cpu time     12.7731: real time      0.8050

 eigenvalue-minimisations  :   768
 total energy-change (2. order) : 0.1005184E+00  (-0.7222256E-01)
 number of electron      39.9999971 magnetization 
 augmentation part        5.0943968 magnetization 

 Broyden mixing:
  rms(total) = 0.12811E+00    rms(broyden)= 0.12809E+00
  rms(prec ) = 0.17084E+00
  weight for this iteration     100.00

 eigenvalues of (default mixing * dielectric matrix)
  average eigenvalue GAMMA=   1.1329
  1.9227  1.9227  0.4232  0.6980  0.6980

 Free energy of the ion-electron system (eV)
  ---------------------------------------------------
  alpha Z        PSCENC =        37.65424308
  Ewald energy   TEWEN  =      1732.99227595
  -Hartree energ DENC   =     -3965.31863831
  -exchange      EXHF   =         0.00000000
  -V(xc)+E(xc)   XCENC  =        72.57408161
  PAW double counting   =      2994.50106250    -2922.89382056
  entropy T*S    EENTRO =         0.00011308
  eigenvalues    EBANDS =      -387.15695088
  atomic energy  EATOM  =      2375.85777992
  Solvation  Ediel_sol  =         0.00000000
  ---------------------------------------------------
  free energy    TOTEN  =       -61.78985360 eV

  energy without entropy =      -61.78996668  energy(sigma->0) =      -61.78988187


--------------------------------------------------------------------------------------------------------




--------------------------------------- Iteration      1(  11)  ---------------------------------------


    POTLOK:  cpu time      0.4504: real time      0.0282
    SETDIJ:  cpu time      0.0543: real time      0.0034
     EDDAV:  cpu time     10.9637: real time      0.6887
       DOS:  cpu time      0.0047: real time      0.0003
    CHARGE:  cpu time      0.3310: real time      0.0208
    MIXING:  cpu time      0.0469: real time      0.0030
    --------------------------------------------
      LOOP:  cpu time     11.8509: real time      0.7444

 eigenvalue-minimisations  :   718
 total energy-change (2. order) : 0.6498189E-01  (-0.2293787E-01)
 number of electron      39.9999971 magnetization 
 augmentation part        5.1175101 magnetization 

 Broyden mixing:
  rms(total) = 0.75863E-01    rms(broyden)= 0.75812E-01
  rms(prec ) = 0.12030E+00
  weight for this iteration     100.00

 eigenvalues of (default mixing * dielectric matrix)
  average eigenvalue GAMMA=   1.1126
  2.0761  2.0761  0.9476  0.7459  0.4149  0.4149

 Free energy of the ion-electron system (eV)
  ---------------------------------------------------
  alpha Z        PSCENC =        37.65424308
  Ewald energy   TEWEN  =      1732.99227595
  -Hartree energ DENC   =     -3971.53626791
  -exchange      EXHF   =         0.00000000
  -V(xc)+E(xc)   XCENC  =        72.49024112
  PAW double counting   =      3014.49034693    -2942.76045304
  entropy T*S    EENTRO =        -0.00000000
  eigenvalues    EBANDS =      -380.91303776
  atomic energy  EATOM  =      2375.85777992
  Solvation  Ediel_sol  =         0.00000000
  ---------------------------------------------------
  free energy    TOTEN  =       -61.72487170 eV

  energy without entropy =      -61.72487170  energy(sigma->0) =      -61.72487170


--------------------------------------------------------------------------------------------------------




--------------------------------------- Iteration      1(  12)  ---------------------------------------


    POTLOK:  cpu time      0.4223: real time      0.0265
    SETDIJ:  cpu time      0.0360: real time      0.0023
     EDDAV:  cpu time     10.9638: real time      0.6880
       DOS:  cpu time      0.0086: real time      0.0005
    CHARGE:  cpu time      0.2691: real time      0.0169
    MIXING:  cpu time      0.0492: real time      0.0031
    --------------------------------------------
      LOOP:  cpu time     11.7490: real time      0.7373

 eigenvalue-minimisations  :   740
 total energy-change (2. order) : 0.3901726E-01  (-0.7040762E-02)
 number of electron      39.9999971 magnetization 
 augmentation part        5.1428797 magnetization 

 Broyden mixing:
  rms(total) = 0.41320E-01    rms(broyden)= 0.41308E-01
  rms(prec ) = 0.73722E-01
  weight for this iteration     100.00

 eigenvalues of (default mixing * dielectric matrix)
  average eigenvalue GAMMA=   1.0752
  2.1215  2.1215  0.8349  0.8057  0.8057  0.4187  0.4187

 Free energy of the ion-electron system (eV)
  ---------------------------------------------------
  alpha Z        PSCENC =        37.65424308
  Ewald energy   TEWEN  =      1732.99227595
  -Hartree energ DENC   =     -3977.72765954
  -exchange      EXHF   =         0.00000000
  -V(xc)+E(xc)   XCENC  =        72.55874926
  PAW double counting   =      3029.84262805    -2958.07703146
  entropy T*S    EENTRO =         0.00010440
  eigenvalues    EBANDS =      -374.78694410
  atomic energy  EATOM  =      2375.85777992
  Solvation  Ediel_sol  =         0.00000000
  ---------------------------------------------------
  free energy    TOTEN  =       -61.68585445 eV

  energy without entropy =      -61.68595884  energy(sigma->0) =      -61.68588055


--------------------------------------------------------------------------------------------------------




--------------------------------------- Iteration      1(  13)  ---------------------------------------


    POTLOK:  cpu time      0.4174: real time      0.0262
    SETDIJ:  cpu time      0.0357: real time      0.0022
     EDDAV:  cpu time      9.6830: real time      0.6079
       DOS:  cpu time      0.0092: real time      0.0006
    CHARGE:  cpu time      0.2704: real time      0.0170
    MIXING:  cpu time      0.0505: real time      0.0032
    --------------------------------------------
      LOOP:  cpu time     10.4663: real time      0.6571

 eigenvalue-minimisations  :   702
 total energy-change (2. order) : 0.1495527E-01  (-0.6884337E-02)
 number of electron      39.9999971 magnetization 
 augmentation part        5.0863058 magnetization 

 Broyden mixing:
  rms(total) = 0.65755E-01    rms(broyden)= 0.65740E-01
  rms(prec ) = 0.88695E-01
  weight for this iteration     100.00

 eigenvalues of (default mixing * dielectric matrix)
  average eigenvalue GAMMA=   1.1899
  2.2965  2.2965  1.7654  1.0059  0.7673  0.5390  0.4325  0.4161

 Free energy of the ion-electron system (eV)
  ---------------------------------------------------
  alpha Z        PSCENC =        37.65424308
  Ewald energy   TEWEN  =      1732.99227595
  -Hartree energ DENC   =     -3982.13570287
  -exchange      EXHF   =         0.00000000
  -V(xc)+E(xc)   XCENC  =        72.54003381
  PAW double counting   =      3021.78745469    -2950.06624039
  entropy T*S    EENTRO =         0.00009557
  eigenvalues    EBANDS =      -370.30083893
  atomic energy  EATOM  =      2375.85777992
  Solvation  Ediel_sol  =         0.00000000
  ---------------------------------------------------
  free energy    TOTEN  =       -61.67089917 eV

  energy without entropy =      -61.67099474  energy(sigma->0) =      -61.67092306


--------------------------------------------------------------------------------------------------------




--------------------------------------- Iteration      1(  14)  ---------------------------------------


    POTLOK:  cpu time      0.3920: real time      0.0246
    SETDIJ:  cpu time      0.0354: real time      0.0022
     EDDAV:  cpu time      9.1428: real time      0.5737
       DOS:  cpu time      0.0049: real time      0.0003
    CHARGE:  cpu time      0.2792: real time      0.0175
    MIXING:  cpu time      0.0531: real time      0.0034
    --------------------------------------------
      LOOP:  cpu time      9.9076: real time      0.6217

 eigenvalue-minimisations  :   740
 total energy-change (2. order) : 0.2234570E-01  (-0.5031218E-02)
 number of electron      39.9999971 magnetization 
 augmentation part        5.0644077 magnetization 

 Broyden mixing:
  rms(total) = 0.64409E-01    rms(broyden)= 0.64402E-01
  rms(prec ) = 0.76393E-01
  weight for this iteration     100.00

 eigenvalues of (default mixing * dielectric matrix)
  average eigenvalue GAMMA=   1.1939
  2.7932  2.0341  2.0341  0.9668  0.7443  0.7443  0.5875  0.4261  0.4149

 Free energy of the ion-electron system (eV)
  ---------------------------------------------------
  alpha Z        PSCENC =        37.65424308
  Ewald energy   TEWEN  =      1732.99227595
  -Hartree energ DENC   =     -3994.50752462
  -exchange      EXHF   =         0.00000000
  -V(xc)+E(xc)   XCENC  =        72.69032365
  PAW double counting   =      3018.19725923    -2946.52916131
  entropy T*S    EENTRO =        -0.00000000
  eigenvalues    EBANDS =      -358.00374937
  atomic energy  EATOM  =      2375.85777992
  Solvation  Ediel_sol  =         0.00000000
  ---------------------------------------------------
  free energy    TOTEN  =       -61.64855347 eV

  energy without entropy =      -61.64855347  energy(sigma->0) =      -61.64855347


--------------------------------------------------------------------------------------------------------




--------------------------------------- Iteration      1(  15)  ---------------------------------------


    POTLOK:  cpu time      0.3880: real time      0.0243
    SETDIJ:  cpu time      0.0346: real time      0.0022
     EDDAV:  cpu time      8.3411: real time      0.5234
       DOS:  cpu time      0.0090: real time      0.0006
    CHARGE:  cpu time      0.2823: real time      0.0177
    MIXING:  cpu time      0.0647: real time      0.0041
    --------------------------------------------
      LOOP:  cpu time      9.1192: real time      0.5722

 eigenvalue-minimisations  :   658
 total energy-change (2. order) : 0.4838101E-02  (-0.5968269E-02)
 number of electron      39.9999971 magnetization 
 augmentation part        5.1126651 magnetization 

 Broyden mixing:
  rms(total) = 0.32884E-01    rms(broyden)= 0.32853E-01
  rms(prec ) = 0.41505E-01
  weight for this iteration     100.00

 eigenvalues of (default mixing * dielectric matrix)
  average eigenvalue GAMMA=   1.3444
  3.4861  2.4416  1.6206  1.6206  1.0881  1.0457  0.7140  0.5857  0.4165  0.4248

 Free energy of the ion-electron system (eV)
  ---------------------------------------------------
  alpha Z        PSCENC =        37.65424308
  Ewald energy   TEWEN  =      1732.99227595
  -Hartree energ DENC   =     -3997.20466334
  -exchange      EXHF   =         0.00000000
  -V(xc)+E(xc)   XCENC  =        72.76420548
  PAW double counting   =      3023.82547517    -2952.11634215
  entropy T*S    EENTRO =         0.00010043
  eigenvalues    EBANDS =      -355.41678992
  atomic energy  EATOM  =      2375.85777992
  Solvation  Ediel_sol  =         0.00000000
  ---------------------------------------------------
  free energy    TOTEN  =       -61.64371537 eV

  energy without entropy =      -61.64381580  energy(sigma->0) =      -61.64374048


--------------------------------------------------------------------------------------------------------




--------------------------------------- Iteration      1(  16)  ---------------------------------------


    POTLOK:  cpu time      0.3900: real time      0.0244
    SETDIJ:  cpu time      0.0344: real time      0.0022
     EDDAV:  cpu time      9.4132: real time      0.5945
       DOS:  cpu time      0.0103: real time      0.0007
    CHARGE:  cpu time      0.2708: real time      0.0170
    MIXING:  cpu time      0.0834: real time      0.0054
    --------------------------------------------
      LOOP:  cpu time     10.2023: real time      0.6442

 eigenvalue-minimisations  :   694
 total energy-change (2. order) : 0.5470727E-03  (-0.3171572E-02)
 number of electron      39.9999971 magnetization 
 augmentation part        5.0875568 magnetization 

 Broyden mixing:
  rms(total) = 0.27893E-01    rms(broyden)= 0.27876E-01
  rms(prec ) = 0.34258E-01
  weight for this iteration     100.00

 eigenvalues of (default mixing * dielectric matrix)
  average eigenvalue GAMMA=   1.4686
  4.9332  2.6183  1.8007  1.8007  1.0091  1.0091  0.8523  0.6630  0.6275  0.4242
  0.4169

 Free energy of the ion-electron system (eV)
  ---------------------------------------------------
  alpha Z        PSCENC =        37.65424308
  Ewald energy   TEWEN  =      1732.99227595
  -Hartree energ DENC   =     -3998.09212869
  -exchange      EXHF   =         0.00000000
  -V(xc)+E(xc)   XCENC  =        72.64057518
  PAW double counting   =      3013.35238080    -2941.59719669
  entropy T*S    EENTRO =         0.00009095
  eigenvalues    EBANDS =      -354.45118881
  atomic energy  EATOM  =      2375.85777992
  Solvation  Ediel_sol  =         0.00000000
  ---------------------------------------------------
  free energy    TOTEN  =       -61.64316830 eV

  energy without entropy =      -61.64325925  energy(sigma->0) =      -61.64319104


--------------------------------------------------------------------------------------------------------




--------------------------------------- Iteration      1(  17)  ---------------------------------------


    POTLOK:  cpu time      0.4156: real time      0.0263
    SETDIJ:  cpu time      0.0355: real time      0.0022
     EDDAV:  cpu time      8.8085: real time      0.5566
       DOS:  cpu time      0.0051: real time      0.0003
    CHARGE:  cpu time      0.6350: real time      0.0434
    MIXING:  cpu time      0.0910: real time      0.0060
    --------------------------------------------
      LOOP:  cpu time      9.9907: real time      0.6348

 eigenvalue-minimisations  :   668
 total energy-change (2. order) : 0.1355867E-03  (-0.4264896E-03)
 number of electron      39.9999971 magnetization 
 augmentation part        5.0994730 magnetization 

 Broyden mixing:
  rms(total) = 0.10415E-01    rms(broyden)= 0.10413E-01
  rms(prec ) = 0.13206E-01
  weight for this iteration     100.00

 eigenvalues of (default mixing * dielectric matrix)
  average eigenvalue GAMMA=   1.5041
  5.5496  2.6425  1.9133  1.9133  1.1130  1.1130  0.9446  0.7529  0.6330  0.6330
  0.4169  0.4243

 Free energy of the ion-electron system (eV)
  ---------------------------------------------------
  alpha Z        PSCENC =        37.65424308
  Ewald energy   TEWEN  =      1732.99227595
  -Hartree energ DENC   =     -3999.52657597
  -exchange      EXHF   =         0.00000000
  -V(xc)+E(xc)   XCENC  =        72.65826183
  PAW double counting   =      3012.91225196    -2941.14875489
  entropy T*S    EENTRO =        -0.00000000
  eigenvalues    EBANDS =      -353.04251459
  atomic energy  EATOM  =      2375.85777992
  Solvation  Ediel_sol  =         0.00000000
  ---------------------------------------------------
  free energy    TOTEN  =       -61.64303271 eV

  energy without entropy =      -61.64303271  energy(sigma->0) =      -61.64303271


--------------------------------------------------------------------------------------------------------




--------------------------------------- Iteration      1(  18)  ---------------------------------------


    POTLOK:  cpu time      0.5935: real time      0.0389
    SETDIJ:  cpu time      0.0476: real time      0.0031
     EDDAV:  cpu time      8.1937: real time      0.5165
       DOS:  cpu time      0.0096: real time      0.0006
    CHARGE:  cpu time      0.2500: real time      0.0157
    MIXING:  cpu time      0.0665: real time      0.0042
    --------------------------------------------
      LOOP:  cpu time      9.1610: real time      0.5790

 eigenvalue-minimisations  :   640
 total energy-change (2. order) :-0.1321074E-02  (-0.3511526E-03)
 number of electron      39.9999971 magnetization 
 augmentation part        5.1092024 magnetization 

 Broyden mixing:
  rms(total) = 0.99862E-02    rms(broyden)= 0.99773E-02
  rms(prec ) = 0.12277E-01
  weight for this iteration     100.00

 eigenvalues of (default mixing * dielectric matrix)
  average eigenvalue GAMMA=   1.6675
  6.8993  3.0635  2.3657  1.7809  1.7809  1.0407  1.0407  0.8627  0.4244  0.4169
  0.7051  0.7051  0.5922

 Free energy of the ion-electron system (eV)
  ---------------------------------------------------
  alpha Z        PSCENC =        37.65424308
  Ewald energy   TEWEN  =      1732.99227595
  -Hartree energ DENC   =     -4000.30616815
  -exchange      EXHF   =         0.00000000
  -V(xc)+E(xc)   XCENC  =        72.68041158
  PAW double counting   =      3014.18185004    -2942.41884163
  entropy T*S    EENTRO =         0.00009999
  eigenvalues    EBANDS =      -352.28600457
  atomic energy  EATOM  =      2375.85777992
  Solvation  Ediel_sol  =         0.00000000
  ---------------------------------------------------
  free energy    TOTEN  =       -61.64435378 eV

  energy without entropy =      -61.64445377  energy(sigma->0) =      -61.64437878


--------------------------------------------------------------------------------------------------------




--------------------------------------- Iteration      1(  19)  ---------------------------------------


    POTLOK:  cpu time      0.3784: real time      0.0237
    SETDIJ:  cpu time      0.0352: real time      0.0022
     EDDAV:  cpu time      7.5811: real time      0.4758
       DOS:  cpu time      0.0088: real time      0.0005
    CHARGE:  cpu time      0.2220: real time      0.0139
    MIXING:  cpu time      0.0718: real time      0.0045
    --------------------------------------------
      LOOP:  cpu time      8.2973: real time      0.5207

 eigenvalue-minimisations  :   588
 total energy-change (2. order) :-0.1671022E-02  (-0.4313159E-04)
 number of electron      39.9999971 magnetization 
 augmentation part        5.1095239 magnetization 

 Broyden mixing:
  rms(total) = 0.10551E-01    rms(broyden)= 0.10550E-01
  rms(prec ) = 0.12785E-01
  weight for this iteration     100.00

 eigenvalues of (default mixing * dielectric matrix)
  average eigenvalue GAMMA=   1.6749
  7.1998  3.3716  2.4126  1.8552  1.8552  1.0078  1.0078  0.9713  0.8209  0.8209
  0.4243  0.4169  0.6818  0.6029

 Free energy of the ion-electron system (eV)
  ---------------------------------------------------
  alpha Z        PSCENC =        37.65424308
  Ewald energy   TEWEN  =      1732.99227595
  -Hartree energ DENC   =     -4000.52702228
  -exchange      EXHF   =         0.00000000
  -V(xc)+E(xc)   XCENC  =        72.68144861
  PAW double counting   =      3015.53054399    -2943.77211679
  entropy T*S    EENTRO =         0.00009741
  eigenvalues    EBANDS =      -352.06327470
  atomic energy  EATOM  =      2375.85777992
  Solvation  Ediel_sol  =         0.00000000
  ---------------------------------------------------
  free energy    TOTEN  =       -61.64602481 eV

  energy without entropy =      -61.64612222  energy(sigma->0) =      -61.64604916


--------------------------------------------------------------------------------------------------------




--------------------------------------- Iteration      1(  20)  ---------------------------------------


    POTLOK:  cpu time      0.3907: real time      0.0245
    SETDIJ:  cpu time      0.0344: real time      0.0022
     EDDAV:  cpu time      6.7306: real time      0.4222
       DOS:  cpu time      0.0049: real time      0.0003
    CHARGE:  cpu time      0.2309: real time      0.0145
    MIXING:  cpu time      0.0937: real time      0.0059
    --------------------------------------------
      LOOP:  cpu time      7.4848: real time      0.4695

 eigenvalue-minimisations  :   656
 total energy-change (2. order) :-0.3637339E-03  (-0.6777366E-04)
 number of electron      39.9999971 magnetization 
 augmentation part        5.1041910 magnetization 

 Broyden mixing:
  rms(total) = 0.26102E-02    rms(broyden)= 0.26062E-02
  rms(prec ) = 0.31817E-02
  weight for this iteration     100.00

 eigenvalues of (default mixing * dielectric matrix)
  average eigenvalue GAMMA=   1.7003
  7.2644  3.7550  2.4721  1.9554  1.9554  1.2116  1.2116  1.0675  0.4243  0.4169
  0.8277  0.8277  0.6028  0.6960  0.8161

 Free energy of the ion-electron system (eV)
  ---------------------------------------------------
  alpha Z        PSCENC =        37.65424308
  Ewald energy   TEWEN  =      1732.99227595
  -Hartree energ DENC   =     -4000.45043714
  -exchange      EXHF   =         0.00000000
  -V(xc)+E(xc)   XCENC  =        72.67330103
  PAW double counting   =      3015.48843974    -2943.73322795
  entropy T*S    EENTRO =        -0.00000000
  eigenvalues    EBANDS =      -352.12876318
  atomic energy  EATOM  =      2375.85777992
  Solvation  Ediel_sol  =         0.00000000
  ---------------------------------------------------
  free energy    TOTEN  =       -61.64638854 eV

  energy without entropy =      -61.64638854  energy(sigma->0) =      -61.64638854


--------------------------------------------------------------------------------------------------------




--------------------------------------- Iteration      1(  21)  ---------------------------------------


    POTLOK:  cpu time      0.4660: real time      0.0292
    SETDIJ:  cpu time      0.0589: real time      0.0037
     EDDAV:  cpu time      6.8831: real time      0.4318
       DOS:  cpu time      0.0050: real time      0.0003
    CHARGE:  cpu time      0.2578: real time      0.0162
    MIXING:  cpu time      0.0783: real time      0.0049
    --------------------------------------------
      LOOP:  cpu time      7.7495: real time      0.4861

 eigenvalue-minimisations  :   666
 total energy-change (2. order) :-0.1971265E-03  (-0.2476017E-04)
 number of electron      39.9999971 magnetization 
 augmentation part        5.1019134 magnetization 

 Broyden mixing:
  rms(total) = 0.24822E-02    rms(broyden)= 0.24787E-02
  rms(prec ) = 0.29880E-02
  weight for this iteration     100.00

 eigenvalues of (default mixing * dielectric matrix)
  average eigenvalue GAMMA=   1.7970
  7.7255  4.6918  2.5323  2.3840  1.8625  1.8625  1.0723  1.0723  0.4243  0.4169
  0.9690  0.8176  0.8176  0.7831  0.7175  0.6020

 Free energy of the ion-electron system (eV)
  ---------------------------------------------------
  alpha Z        PSCENC =        37.65424308
  Ewald energy   TEWEN  =      1732.99227595
  -Hartree energ DENC   =     -4000.36633761
  -exchange      EXHF   =         0.00000000
  -V(xc)+E(xc)   XCENC  =        72.66727357
  PAW double counting   =      3015.45344644    -2943.69849608
  entropy T*S    EENTRO =        -0.00000000
  eigenvalues    EBANDS =      -352.20677094
  atomic energy  EATOM  =      2375.85777992
  Solvation  Ediel_sol  =         0.00000000
  ---------------------------------------------------
  free energy    TOTEN  =       -61.64658567 eV

  energy without entropy =      -61.64658567  energy(sigma->0) =      -61.64658567


--------------------------------------------------------------------------------------------------------




--------------------------------------- Iteration      1(  22)  ---------------------------------------


    POTLOK:  cpu time      0.3642: real time      0.0228
    SETDIJ:  cpu time      0.0352: real time      0.0022
     EDDAV:  cpu time      6.1776: real time      0.3876
       DOS:  cpu time      0.0050: real time      0.0003
    CHARGE:  cpu time      0.2506: real time      0.0157
    MIXING:  cpu time      0.0819: real time      0.0052
    --------------------------------------------
      LOOP:  cpu time      6.9145: real time      0.4338

 eigenvalue-minimisations  :   578
 total energy-change (2. order) :-0.4912237E-04  (-0.1240758E-05)
 number of electron      39.9999971 magnetization 
 augmentation part        5.1018510 magnetization 

 Broyden mixing:
  rms(total) = 0.26259E-02    rms(broyden)= 0.26257E-02
  rms(prec ) = 0.31530E-02
  weight for this iteration     100.00

 eigenvalues of (default mixing * dielectric matrix)
  average eigenvalue GAMMA=   1.8129
  8.0514  5.0297  2.7783  2.4276  1.8885  1.8885  1.1338  1.1338  0.4243  0.4169
  0.6026  0.9168  0.9168  0.6972  0.8444  0.8339  0.8339

 Free energy of the ion-electron system (eV)
  ---------------------------------------------------
  alpha Z        PSCENC =        37.65424308
  Ewald energy   TEWEN  =      1732.99227595
  -Hartree energ DENC   =     -4000.39203244
  -exchange      EXHF   =         0.00000000
  -V(xc)+E(xc)   XCENC  =        72.66718979
  PAW double counting   =      3015.26996867    -2943.51481237
  entropy T*S    EENTRO =        -0.00000000
  eigenvalues    EBANDS =      -352.18124739
  atomic energy  EATOM  =      2375.85777992
  Solvation  Ediel_sol  =         0.00000000
  ---------------------------------------------------
  free energy    TOTEN  =       -61.64663479 eV

  energy without entropy =      -61.64663479  energy(sigma->0) =      -61.64663479


--------------------------------------------------------------------------------------------------------




--------------------------------------- Iteration      1(  23)  ---------------------------------------


    POTLOK:  cpu time      0.3786: real time      0.0238
    SETDIJ:  cpu time      0.0349: real time      0.0022
     EDDAV:  cpu time      6.6521: real time      0.4173
       DOS:  cpu time      0.0048: real time      0.0003
    CHARGE:  cpu time      0.2317: real time      0.0145
    MIXING:  cpu time      0.0835: real time      0.0053
    --------------------------------------------
      LOOP:  cpu time      7.3855: real time      0.4634

 eigenvalue-minimisations  :   638
 total energy-change (2. order) : 0.3044005E-05  (-0.2826484E-05)
 number of electron      39.9999971 magnetization 
 augmentation part        5.1028919 magnetization 

 Broyden mixing:
  rms(total) = 0.91976E-03    rms(broyden)= 0.91930E-03
  rms(prec ) = 0.11013E-02
  weight for this iteration     100.00

 eigenvalues of (default mixing * dielectric matrix)
  average eigenvalue GAMMA=   1.7895
  8.1388  5.0589  2.8617  2.4703  1.8918  1.8918  1.2555  1.2555  0.4243  0.4169
  0.9756  0.9756  0.8992  0.6022  0.7077  0.7599  0.8131  0.8131

 Free energy of the ion-electron system (eV)
  ---------------------------------------------------
  alpha Z        PSCENC =        37.65424308
  Ewald energy   TEWEN  =      1732.99227595
  -Hartree energ DENC   =     -4000.42642652
  -exchange      EXHF   =         0.00000000
  -V(xc)+E(xc)   XCENC  =        72.66920322
  PAW double counting   =      3015.24145997    -2943.48575102
  entropy T*S    EENTRO =        -0.00000000
  eigenvalues    EBANDS =      -352.14941635
  atomic energy  EATOM  =      2375.85777992
  Solvation  Ediel_sol  =         0.00000000
  ---------------------------------------------------
  free energy    TOTEN  =       -61.64663175 eV

  energy without entropy =      -61.64663175  energy(sigma->0) =      -61.64663175


--------------------------------------------------------------------------------------------------------




--------------------------------------- Iteration      1(  24)  ---------------------------------------


    POTLOK:  cpu time      0.3676: real time      0.0231
    SETDIJ:  cpu time      0.0348: real time      0.0022
     EDDAV:  cpu time      5.7250: real time      0.3592
       DOS:  cpu time      0.0046: real time      0.0003
    --------------------------------------------
      LOOP:  cpu time      6.1315: real time      0.3847

 eigenvalue-minimisations  :   518
 total energy-change (2. order) :-0.5732804E-06  (-0.5630673E-06)
 number of electron      39.9999971 magnetization 
 augmentation part        5.1028919 magnetization 

 Free energy of the ion-electron system (eV)
  ---------------------------------------------------
  alpha Z        PSCENC =        37.65424308
  Ewald energy   TEWEN  =      1732.99227595
  -Hartree energ DENC   =     -4000.44808130
  -exchange      EXHF   =         0.00000000
  -V(xc)+E(xc)   XCENC  =        72.67022312
  PAW double counting   =      3015.21028507    -2943.45451181
  entropy T*S    EENTRO =        -0.00000000
  eigenvalues    EBANDS =      -352.12884636
  atomic energy  EATOM  =      2375.85777992
  Solvation  Ediel_sol  =         0.00000000
  ---------------------------------------------------
  free energy    TOTEN  =       -61.64663232 eV

  energy without entropy =      -61.64663232  energy(sigma->0) =      -61.64663232


--------------------------------------------------------------------------------------------------------




 average (electrostatic) potential at core
  the test charge radii are     1.2598  0.7215  0.5201
  (the norm of the test charge is              1.0000)
       1 -32.5688       2 -32.5940       3 -76.2814       4 -76.2812       5 -76.2572
       6 -76.2572       7 -79.7187       8 -43.0745       9 -43.0745
 
 
 
 E-fermi :  -2.0118     XC(G=0):  -4.2146     alpha+bet : -2.5672

 Fermi energy:        -2.0117539097

 k-point     1 :       0.0000    0.0000    0.0000
  band No.  band energies     occupation 
      1     -23.7968      2.00000
      2     -19.0789      2.00000
      3     -18.4028      2.00000
      4     -18.1032      2.00000
      5     -18.0701      2.00000
      6     -11.4592      2.00000
      7      -8.5592      2.00000
      8      -6.1996      2.00000
      9      -6.1145      2.00000
     10      -6.0892      2.00000
     11      -5.5981      2.00000
     12      -5.0569      2.00000
     13      -5.0116      2.00000
     14      -4.5307      2.00000
     15      -4.3002      2.00000
     16      -3.9652      2.00000
     17      -3.9527      2.00000
     18      -2.8041      2.00000
     19      -2.2650      2.00000
     20      -2.2625      2.00000
     21      -1.2401      0.00000
     22      -0.7875      0.00000
     23      -0.4415      0.00000
     24      -0.3034      0.00000
     25      -0.2047      0.00000
     26      -0.2021      0.00000

 k-point     2 :       0.2000    0.0000    0.0000
  band No.  band energies     occupation 
      1     -23.7951      2.00000
      2     -18.9913      2.00000
      3     -18.3741      2.00000
      4     -18.1932      2.00000
      5     -18.1150      2.00000
      6     -11.4722      2.00000
      7      -8.5516      2.00000
      8      -6.1171      2.00000
      9      -6.0661      2.00000
     10      -5.9326      2.00000
     11      -5.4905      2.00000
     12      -5.0704      2.00000
     13      -5.0250      2.00000
     14      -4.7422      2.00000
     15      -4.6341      2.00000
     16      -3.7992      2.00000
     17      -3.6409      2.00000
     18      -2.7023      2.00000
     19      -2.6673      2.00000
     20      -2.4886      2.00000
     21      -0.9602      0.00000
     22      -0.6460      0.00000
     23      -0.6091      0.00000
     24      -0.3169      0.00000
     25      -0.2426      0.00000
     26       0.1204      0.00000

 k-point     3 :       0.4000    0.0000    0.0000
  band No.  band energies     occupation 
      1     -23.7920      2.00000
      2     -18.7548      2.00000
      3     -18.4504      2.00000
      4     -18.2973      2.00000
      5     -18.1990      2.00000
      6     -11.4922      2.00000
      7      -8.5392      2.00000
      8      -6.1559      2.00000
      9      -5.7476      2.00000
     10      -5.5791      2.00000
     11      -5.4007      2.00000
     12      -5.2208      2.00000
     13      -5.1280      2.00000
     14      -4.9592      2.00000
     15      -4.4527      2.00000
[...]
  (the norm of the test charge is              1.0000)
       1 -31.8584       2 -31.3014       3 -76.1548       4 -76.1548       5 -75.9416
       6 -75.9416       7 -80.3219       8 -44.1099       9 -44.1099
 
 
 
 E-fermi :  -2.0524     XC(G=0):  -3.8795     alpha+bet : -2.5672

 Fermi energy:        -2.0523764109

 k-point     1 :       0.0000    0.0000    0.0000
  band No.  band energies     occupation 
      1     -24.8704      2.00000
      2     -19.0272      2.00000
      3     -18.2521      2.00000
      4     -18.2248      2.00000
      5     -17.9810      2.00000
      6     -12.9453      2.00000
      7      -9.4364      2.00000
      8      -6.8619      2.00000
      9      -6.0050      2.00000
     10      -5.9498      2.00000
     11      -5.8062      2.00000
     12      -5.1398      2.00000
     13      -4.9831      2.00000
     14      -4.8317      2.00000
     15      -4.3567      2.00000
     16      -4.1644      2.00000
     17      -4.1603      2.00000
     18      -2.2643      2.00000
     19      -2.2560      2.00000
     20      -2.2378      1.99999
     21      -0.9014      0.00000
     22      -0.0295      0.00000
     23       0.1466      0.00000
     24       0.7269      0.00000
     25       0.8371      0.00000
     26       0.9600      0.00000

 k-point     2 :       0.2000    0.0000    0.0000
  band No.  band energies     occupation 
      1     -24.8689      2.00000
      2     -18.9460      2.00000
      3     -18.2889      2.00000
      4     -18.2313      2.00000
      5     -18.0303      2.00000
      6     -12.9544      2.00000
      7      -9.4294      2.00000
      8      -6.8934      2.00000
      9      -5.9840      2.00000
     10      -5.8288      2.00000
     11      -5.6919      2.00000
     12      -5.1490      2.00000
     13      -5.0025      2.00000
     14      -4.8985      2.00000
     15      -4.7659      2.00000
     16      -3.8634      2.00000
     17      -3.7533      2.00000
     18      -2.7490      2.00000
     19      -2.4550      2.00000
     20      -2.2260      1.99995
     21      -0.6192      0.00000
     22       0.1571      0.00000
     23       0.1739      0.00000
     24       0.6674      0.00000
     25       0.7650      0.00000
     26       1.3942      0.00000

 k-point     3 :       0.4000    0.0000    0.0000
  band No.  band energies     occupation 
      1     -24.8660      2.00000
      2     -18.7328      2.00000
      3     -18.4709      2.00000
      4     -18.1954      2.00000
      5     -18.1144      2.00000
      6     -12.9680      2.00000
      7      -9.4182      2.00000
      8      -6.9376      2.00000
      9      -5.9536      2.00000
     10      -5.6619      2.00000
     11      -5.5826      2.00000
     12      -5.3588      2.00000
     13      -4.8118      2.00000
     14      -4.7744      2.00000
     15      -4.7328      2.00000
     16      -3.8338      2.00000
     17      -3.4832      2.00000
     18      -3.3654      2.00000
     19      -2.6917      2.00000
     20      -2.4446      2.00000
     21       0.1342      0.00000
     22       0.3400      0.00000
     23       0.4717      0.00000
     24       0.6668      0.00000
     25       1.0431      0.00000
     26       1.5235      0.00000

 k-point     4 :       0.2000    0.2000    0.0000
  band No.  band energies     occupation 
      1     -24.8675      2.00000
      2     -18.8620      2.00000
      3     -18.3749      2.00000
      4     -18.2407      2.00000
      5     -18.0222      2.00000
      6     -12.9626      2.00000
      7      -9.4215      2.00000
      8      -6.9280      2.00000
      9      -5.9775      2.00000
     10      -5.7784      2.00000
     11      -5.6684      2.00000
     12      -5.4669      2.00000
     13      -5.0012      2.00000
     14      -4.8275      2.00000
     15      -4.2987      2.00000
     16      -4.1072      2.00000
     17      -3.4657      2.00000
     18      -3.0351      2.00000
     19      -2.6972      2.00000
     20      -2.0810      1.95031
     21      -0.3752      0.00000
     22       0.1881      0.00000
     23       0.2831      0.00000
     24       0.4538      0.00000
     25       1.1623      0.00000
     26       1.4138      0.00000

 k-point     5 :      -0.2000    0.2000    0.0000
  band No.  band energies     occupation 
      1     -24.8673      2.00000
      2     -18.8906      2.00000
      3     -18.2643      2.00000
      4     -18.2236      2.00000
      5     -18.1247      2.00000
      6     -12.9635      2.00000
      7      -9.4271      2.00000
      8      -6.9104      2.00000
      9      -5.9759      2.00000
     10      -5.6243      2.00000
     11      -5.5362      2.00000
     12      -5.2766      2.00000
     13      -5.1706      2.00000
     14      -4.9240      2.00000
     15      -4.5713      2.00000
     16      -4.1135      2.00000
     17      -3.4326      2.00000
     18      -3.1206      2.00000
     19      -2.7102      2.00000
     20      -2.1224      2.03770
     21      -0.3434      0.00000
     22       0.2846      0.00000
     23       0.3334      0.00000
     24       0.7114      0.00000
     25       0.9675      0.00000
     26       1.4300      0.00000

 k-point     6 :       0.4000    0.2000    0.0000
  band No.  band energies     occupation 
      1     -24.8652      2.00000
      2     -18.6650      2.00000
      3     -18.5267      2.00000
      4     -18.2369      2.00000
      5     -18.0800      2.00000
      6     -12.9765      2.00000
      7      -9.4143      2.00000
      8      -6.9625      2.00000
      9      -5.9719      2.00000
     10      -5.7825      2.00000
     11      -5.5269      2.00000
     12      -5.3564      2.00000
     13      -4.9273      2.00000
     14      -4.7960      2.00000
     15      -4.4529      2.00000
     16      -3.9862      2.00000
     17      -3.6208      2.00000
     18      -3.2084      2.00000
     19      -2.7499      2.00000
     20      -2.2840      2.00000
     21       0.2253      0.00000
     22       0.4294      0.00000
     23       0.5061      0.00000
     24       0.6201      0.00000
     25       1.2878      0.00000
     26       1.6801      0.00000

 k-point     7 :      -0.2000    0.4000    0.0000
  band No.  band energies     occupation 
      1     -24.8651      2.00000
      2     -18.7286      2.00000
      3     -18.4155      2.00000
      4     -18.2249      2.00000
      5     -18.1418      2.00000
      6     -12.9772      2.00000
      7      -9.4180      2.00000
      8      -6.9521      2.00000
      9      -5.9841      2.00000
     10      -5.6418      2.00000
     11      -5.4336      2.00000
     12      -5.2784      2.00000
     13      -5.0309      2.00000
     14      -4.8561      2.00000
     15      -4.6447      2.00000
     16      -3.8674      2.00000
     17      -3.7060      2.00000
     18      -3.2680      2.00000
     19      -2.7595      2.00000
     20      -2.2911      2.00000
     21       0.3256      0.00000
     22       0.4465      0.00000
     23       0.5115      0.00000
     24       0.9115      0.00000
     25       1.0941      0.00000
     26       1.4645      0.00000

 k-point     8 :       0.4000    0.4000    0.0000
  band No.  band energies     occupation 
      1     -24.8632      2.00000
      2     -18.6036      2.00000
      3     -18.5227      2.00000
      4     -18.2883      2.00000
      5     -18.0867      2.00000
      6     -12.9900      2.00000
      7      -9.4114      2.00000
      8      -6.9888      2.00000
      9      -6.0064      2.00000
     10      -5.8511      2.00000
     11      -5.3764      2.00000
     12      -5.2232      2.00000
     13      -5.0606      2.00000
     14      -4.8009      2.00000
     15      -4.2862      2.00000
     16      -4.2648      2.00000
     17      -3.8420      2.00000
     18      -3.3340      2.00000
     19      -2.4626      2.00000
     20      -2.1310      2.01230
     21       0.1659      0.00000
     22       0.5900      0.00000
     23       0.8596      0.00000
     24       0.9652      0.00000
     25       1.3699      0.00000
     26       1.7987      0.00000

 k-point     9 :      -0.4000    0.4000    0.0000
  band No.  band energies     occupation 
      1     -24.8632      2.00000
      2     -18.6716      2.00000
      3     -18.3908      2.00000
      4     -18.3262      2.00000
      5     -18.1141      2.00000
      6     -12.9904      2.00000
      7      -9.4138      2.00000
      8      -6.9828      2.00000
      9      -5.9956      2.00000
     10      -5.7804      2.00000
     11      -5.2862      2.00000
     12      -5.2605      2.00000
     13      -5.0070      2.00000
     14      -4.8731      2.00000
     15      -4.6067      2.00000
     16      -4.0709      2.00000
     17      -3.8240      2.00000
     18      -3.3576      2.00000
     19      -2.4432      2.00000
     20      -2.2133      1.99980
     21       0.2889      0.00000
     22       0.6410      0.00000
     23       0.8789      0.00000
     24       1.1946      0.00000
     25       1.1965      0.00000
     26       1.4330      0.00000


--------------------------------------------------------------------------------------------------------


 soft charge-density along one line, spin component           1
         0         1         2         3         4         5         6         7         8         9
 total charge-density along one line
 
 pseudopotential strength for first ion, spin component:           1
 -6.224  -0.000  -0.013  -0.000   0.000  -6.688  -0.000  -0.016
 -0.000  -6.303  -0.000   0.054   0.000  -0.000  -6.780  -0.000
 -0.013  -0.000  -6.310  -0.000  -0.000  -0.016  -0.000  -6.789
 -0.000   0.054  -0.000  -6.303  -0.000  -0.000   0.061  -0.000
  0.000   0.000  -0.000  -0.000  -6.193   0.000   0.000  -0.000
 -6.688  -0.000  -0.016  -0.000   0.000  -7.114  -0.000  -0.019
 -0.000  -6.780  -0.000   0.061   0.000  -0.000  -7.221  -0.000
 -0.016  -0.000  -6.789  -0.000  -0.000  -0.019  -0.000  -7.232
 -0.000   0.061  -0.000  -6.780  -0.000  -0.000   0.069  -0.000
  0.000   0.000  -0.000  -0.000  -6.655   0.000   0.000  -0.000
 -0.006   0.000   0.015   0.000  -0.000  -0.006   0.000   0.017
  0.005  -0.000  -0.024  -0.000   0.000   0.005  -0.000  -0.027
  0.000  -0.044  -0.000  -0.008  -0.000   0.000  -0.050  -0.000
 -0.008   0.000  -0.059   0.000   0.000  -0.009   0.000  -0.067
  0.000  -0.008  -0.000  -0.044   0.000   0.000  -0.009  -0.000
 total augmentation occupancy for first ion, spin component:           1
 10.617  -0.000  -3.918  -0.000   0.000  -7.278   0.000   2.893   0.000   0.000   0.068   0.042   0.000  -0.813   0.000
 -0.000   7.836  -0.000  -4.535   0.000   0.000  -5.238   0.000   3.275  -0.000  -0.000  -0.000   0.971   0.000  -0.800
 -3.918  -0.000   5.454  -0.000   0.000   2.905   0.000  -3.524   0.000   0.000  -0.208  -0.031  -0.000   0.735  -0.000
 -0.000  -4.535  -0.000   7.836  -0.000   0.000   3.275   0.000  -5.238   0.000  -0.000  -0.000  -0.800   0.000   0.971
  0.000   0.000   0.000  -0.000   3.320   0.000  -0.000   0.000   0.000  -1.935   0.000   0.000  -0.000   0.000   0.000
 -7.278   0.000   2.905   0.000   0.000   5.078  -0.000  -2.151  -0.000   0.000  -0.097  -0.027  -0.000   0.572  -0.000
  0.000  -5.238   0.000   3.275  -0.000  -0.000   3.575   0.000  -2.398   0.000   0.000   0.000  -0.656  -0.000   0.563
  2.893   0.000  -3.524   0.000   0.000  -2.151   0.000   2.324   0.000   0.000   0.135   0.021   0.000  -0.503   0.000
  0.000   3.275   0.000  -5.238   0.000  -0.000  -2.398   0.000   3.575  -0.000   0.000   0.000   0.563  -0.000  -0.656
  0.000  -0.000   0.000   0.000  -1.935   0.000   0.000   0.000  -0.000   1.143   0.000   0.000   0.000   0.000  -0.000
  0.068  -0.000  -0.208  -0.000   0.000  -0.097   0.000   0.135   0.000   0.000   2.075   0.112   0.000   0.555   0.000
  0.042  -0.000  -0.031  -0.000   0.000  -0.027   0.000   0.021   0.000   0.000   0.112   0.012   0.000   0.026   0.000
  0.000   0.971  -0.000  -0.800  -0.000  -0.000  -0.656   0.000   0.563   0.000   0.000   0.000   0.458   0.000   0.086
 -0.813   0.000   0.735   0.000   0.000   0.572  -0.000  -0.503  -0.000   0.000   0.555   0.026   0.000   0.347   0.000
  0.000  -0.800  -0.000   0.971   0.000  -0.000   0.563   0.000  -0.656  -0.000   0.000   0.000   0.086   0.000   0.458


------------------------ aborting loop because EDIFF is reached ----------------------------------------


    CHARGE:  cpu time      0.2195: real time      0.0138
    FORLOC:  cpu time      0.0040: real time      0.0011
    FORNL :  cpu time      3.4718: real time      0.4470
    STRESS:  cpu time      7.8970: real time      0.4953
    FORCOR:  cpu time      0.3927: real time      0.0246
    FORHAR:  cpu time      0.1315: real time      0.0090
    MIXING:  cpu time      0.0388: real time      0.0025
    OFIELD:  cpu time      0.0007: real time      0.0000

  FORCE on cell =-STRESS in cart. coord.  units (eV):
  Direction    XX          YY          ZZ          XY          YZ          ZX
  --------------------------------------------------------------------------------------
  Alpha Z    37.65424    37.65424    37.65424
  Ewald    3635.70264  3635.70264 -4684.13132   -71.76266     0.00359     0.00359
  Hartree  4285.79607  4285.79607 -3722.26862   -26.55837    -0.00132    -0.00132
  E(xc)    -188.21670  -188.21670  -188.05527    -0.55732     0.00012     0.00012
  Local   -8416.98949 -8416.98949  7919.61628    80.65636     0.00053     0.00053
  n-local  -128.75443  -128.97504  -132.73540     0.49951    -0.00007    -0.00008
  augment    44.33727    44.33727    43.29726     1.25784    -0.00023    -0.00023
  Kinetic   729.22058   729.14385   723.21549    18.26833    -0.00284    -0.00280
  Fock        0.00000     0.00000     0.00000     0.00000     0.00000     0.00000
  -------------------------------------------------------------------------------------
  Total      -1.39848    -1.39848    -3.40735     1.80516    -0.00021    -0.00021
  in kB      -7.10458    -7.10458   -17.31010     9.17064    -0.00109    -0.00109
  external pressure =      -10.51 kB  Pullay stress =        0.00 kB


 VOLUME and BASIS-vectors are now :
 -----------------------------------------------------------------------------
  energy-cutoff  :      400.00
  volume of cell :      315.37
      direct lattice vectors                 reciprocal lattice vectors
     4.619490000  0.000000000  0.000000000     0.216474113  0.000000000  0.000000000
     0.000000000  4.619490000  0.000000000     0.000000000  0.216474113  0.000000000
     0.000000000  0.000000000 14.778800000     0.000000000  0.000000000  0.067664492

  length of vectors
     4.619490000  4.619490000 14.778800000     0.216474113  0.216474113  0.067664492


 FORCES acting on ions
    electron-ion (+dipol)            ewald-force                    non-local-force                 convergence-correction
 -----------------------------------------------------------------------------------------------
   0.454E-02 0.454E-02 0.297E+03   -.451E-02 -.451E-02 -.289E+03   -.131E-03 -.131E-03 -.248E+01   0.129E-06 0.129E-06 0.316E-02
   0.899E-04 0.899E-04 -.910E+02   -.322E-03 -.322E-03 0.893E+02   0.899E-04 0.899E-04 0.171E+01   0.426E-05 0.426E-05 0.449E-02
   0.181E+02 0.181E+02 0.375E+03   -.204E+02 -.204E+02 -.388E+03   0.290E+00 0.290E+00 0.998E+01   -.458E-03 -.458E-03 0.332E-02
   -.181E+02 -.181E+02 0.375E+03   0.205E+02 0.205E+02 -.388E+03   -.292E+00 -.292E+00 0.998E+01   0.452E-03 0.452E-03 0.333E-02
   0.952E+01 -.952E+01 -.142E+03   -.992E+01 0.992E+01 0.154E+03   0.414E+00 -.414E+00 -.122E+02   0.141E-02 -.142E-02 0.155E-02
   -.952E+01 0.952E+01 -.142E+03   0.992E+01 -.992E+01 0.154E+03   -.414E+00 0.414E+00 -.122E+02   -.142E-02 0.141E-02 0.155E-02
   0.985E-02 0.985E-02 -.447E+03   -.183E-01 -.183E-01 0.408E+03   0.840E-02 0.840E-02 0.396E+02   -.127E-04 -.127E-04 -.438E-02
   0.496E+02 -.496E+02 -.125E+03   -.547E+02 0.547E+02 0.129E+03   0.509E+01 -.509E+01 -.443E+01   0.159E-03 -.160E-03 -.600E-03
   -.496E+02 0.496E+02 -.125E+03   0.547E+02 -.547E+02 0.129E+03   -.509E+01 0.509E+01 -.443E+01   -.160E-03 0.159E-03 -.600E-03
 -----------------------------------------------------------------------------------------------
   -.548E-02 -.548E-02 -.256E+02   0.711E-14 0.000E+00 -.199E-12   0.550E-02 0.550E-02 0.256E+02   -.291E-04 -.291E-04 0.118E-01
 
 
 POSITION                                       TOTAL-FORCE (eV/Angst)
 -----------------------------------------------------------------------------------
      0.00000      0.00000      0.00000        -0.000101     -0.000101      5.195308
      2.30973      2.30973      1.16719        -0.000137     -0.000137     -0.012906
      1.40312      1.40312      0.00000        -2.020085     -2.020085     -2.575875
      3.21632      3.21632      0.00000         2.020452      2.020452     -2.575971
      0.91815      3.70134      1.27994         0.013289     -0.013439     -0.013045
      3.70134      0.91815      1.27994        -0.013439      0.013289     -0.013045
      2.30968      2.30968      3.39246        -0.000116     -0.000116      0.003479
      1.74178      2.87778      3.93599        -0.016655      0.016791     -0.003973
      2.87778      1.74178      3.93599         0.016791     -0.016655     -0.003973
 -----------------------------------------------------------------------------------
    total drift:                               -0.000004     -0.000004     -0.013099


--------------------------------------------------------------------------------------------------------



  FREE ENERGIE OF THE ION-ELECTRON SYSTEM (eV)
  ---------------------------------------------------
  free  energy   TOTEN  =       -63.72874091 eV

  energy  without entropy=      -63.72909353  energy(sigma->0) =      -63.72882906
 
 d Force = 0.1967796E-03[ 0.110E-03, 0.284E-03]  d Energy = 0.2026230E-03-0.584E-05
 d Force =-0.5998407E+00[-0.600E+00,-0.600E+00]  d Ewald  =-0.5998406E+00-0.628E-07


--------------------------------------------------------------------------------------------------------


    POTLOK:  cpu time      0.3927: real time      0.0246


--------------------------------------------------------------------------------------------------------


 Conjugate gradient step on ions:
 trial-energy change:   -0.000203  1 .order   -0.000197   -0.000284   -0.000110
  (g-gl).g = 0.578E-03      g.g   = 0.700E-03  gl.gl    = 0.117E-02
 g(Force)  = 0.700E-03   g(Stress)= 0.000E+00 ortho     = 0.122E-03
 gamma     =   0.49320
 trial     =   0.37367
 opt step  =   0.55440  (harmonic =   0.60829) maximal distance =0.00152124
 next E    =   -63.728768   (d E  =  -0.00023)


--------------------------------------------------------------------------------------------------------


  
 reached required accuracy - stopping structural energy minimisation
 writing wavefunctions
     LOOP+:  cpu time     50.3585: real time      3.5473
    4ORBIT:  cpu time      0.0000: real time      0.0000

 total amount of memory used by VASP MPI-rank0    78769. kBytes
=======================================================================

   base      :      30000. kBytes
   nonl-proj :      19525. kBytes
   fftplans  :       5801. kBytes
   grid      :      12395. kBytes
   one-center:         97. kBytes
   wavefun   :      10951. kBytes
 
  
  
 General timing and accounting informations for this job:
 ========================================================
  
                  Total CPU time used (sec):     6732.338
                            User time (sec):     6619.391
                          System time (sec):      112.948
                         Elapsed time (sec):      443.916
  
                   Maximum memory used (kb):      394336.
                   Average memory used (kb):          N/A
  
                          Minor page faults:       126683
                          Major page faults:         1000
                 Voluntary context switches:         7571
