 running    2 mpi-ranks, with   16 threads/rank, on    1 nodes
 distrk:  each k-point on    2 cores,    1 groups
 distr:  one band on    1 cores,    2 groups
 vasp.6.4.1 05Apr23 (build Jan 22 2025 15:28:53) complex                        
  
 POSCAR found type information on POSCAR TiO H 
 POSCAR found :  3 types and       9 ions
 scaLAPACK will be used
 LDA part: xc-table for Pade appr. of Perdew
 POSCAR, INCAR and KPOINTS ok, starting setup
 FFT: planning ... GRIDC
 FFT: planning ... GRID_SOFT
 FFT: planning ... GRID
 WAVECAR not read
 entering main loop
       N       E                     dE             d eps       ncg     rms          rms(c)
DAV:   1     0.405257171034E+03    0.40526E+03   -0.13624E+04   468   0.995E+02
DAV:   2     0.178028366422E+02   -0.38745E+03   -0.37904E+03   752   0.264E+02
DAV:   3    -0.819086397582E+02   -0.99711E+02   -0.99400E+02   568   0.160E+02
DAV:   4    -0.856971977494E+02   -0.37886E+01   -0.37857E+01   624   0.418E+01
DAV:   5    -0.857780436506E+02   -0.80846E-01   -0.80695E-01   656   0.498E+00    0.347E+01
DAV:   6    -0.679625161344E+02    0.17816E+02   -0.20854E+02   682   0.674E+01    0.296E+01
DAV:   7    -0.679874434650E+02   -0.24927E-01   -0.22554E+02   692   0.895E+01    0.173E+01
DAV:   8    -0.633422473536E+02    0.46452E+01   -0.10209E+01   602   0.191E+01    0.891E+00
DAV:   9    -0.618903719832E+02    0.14519E+01   -0.10308E+01   712   0.169E+01    0.325E+00
DAV:  10    -0.617898535976E+02    0.10052E+00   -0.72223E-01   768   0.490E+00    0.128E+00
DAV:  11    -0.617248717035E+02    0.64982E-01   -0.22938E-01   718   0.339E+00    0.759E-01
DAV:  12    -0.616858544476E+02    0.39017E-01   -0.70408E-02   740   0.204E+00    0.413E-01
DAV:  13    -0.616708991726E+02    0.14955E-01   -0.68843E-02   702   0.164E+00    0.658E-01
DAV:  14    -0.616485534707E+02    0.22346E-01   -0.50312E-02   740   0.111E+00    0.644E-01
DAV:  15    -0.616437153701E+02    0.48381E-02   -0.59683E-02   658   0.138E+00    0.329E-01
DAV:  16    -0.616431682973E+02    0.54707E-03   -0.31716E-02   694   0.892E-01    0.279E-01
DAV:  17    -0.616430327107E+02    0.13559E-03   -0.42649E-03   668   0.400E-01    0.104E-01
DAV:  18    -0.616443537849E+02   -0.13211E-02   -0.35115E-03   640   0.303E-01    0.999E-02
DAV:  19    -0.616460248072E+02   -0.16710E-02   -0.43132E-04   588   0.973E-02    0.106E-01
DAV:  20    -0.616463885411E+02   -0.36373E-03   -0.67774E-04   656   0.146E-01    0.261E-02
DAV:  21    -0.616465856675E+02   -0.19713E-03   -0.24760E-04   666   0.788E-02    0.248E-02
DAV:  22    -0.616466347899E+02   -0.49122E-04   -0.12408E-05   578   0.200E-02    0.263E-02
DAV:  23    -0.616466317459E+02    0.30440E-05   -0.28265E-05   638   0.285E-02    0.920E-03
DAV:  24    -0.616466323192E+02   -0.57328E-06   -0.56307E-06   518   0.117E-02
   1 F= -.61646632E+02 E0= -.61646632E+02  d E =-.616466E+02
 curvature:   0.00 expect dE= 0.000E+00 dE for cont linesearch  0.000E+00
 trial: gam= 0.00000 g(F)=  0.286E+01 g(S)=  0.000E+00 ort = 0.000E+00 (trialstep = 0.100E+01)
 search vector abs. value=  0.286E+01
 bond charge predicted
       N       E                     dE             d eps       ncg     rms          rms(c)
DAV:   1    -0.618838538291E+02   -0.23722E+00   -0.24660E+02   468   0.982E+01    0.112E+01
DAV:   2    -0.620480823808E+02   -0.16423E+00   -0.72730E+00   616   0.178E+01    0.836E+00
DAV:   3    -0.620472520109E+02    0.83037E-03   -0.36491E+00   642   0.131E+01    0.338E+00
DAV:   4    -0.618108994609E+02    0.23635E+00   -0.18902E+00   670   0.101E+01    0.181E+00
DAV:   5    -0.618063077799E+02    0.45917E-02   -0.67068E-01   732   0.512E+00    0.148E+00
DAV:   6    -0.617818558228E+02    0.24452E-01   -0.13087E-01   668   0.231E+00    0.231E-01
DAV:   7    -0.617810924314E+02    0.76339E-03   -0.74771E-03   678   0.532E-01    0.166E-01
DAV:   8    -0.617796819825E+02    0.14104E-02   -0.21079E-03   670   0.328E-01    0.112E-01
DAV:   9    -0.617786911886E+02    0.99079E-03   -0.31712E-03   614   0.357E-01    0.852E-02
DAV:  10    -0.617785396168E+02    0.15157E-03   -0.11881E-03   596   0.221E-01    0.415E-02
DAV:  11    -0.617787405174E+02   -0.20090E-03   -0.62738E-04   680   0.130E-01    0.201E-02
DAV:  12    -0.617790527693E+02   -0.31225E-03   -0.21064E-04   620   0.689E-02    0.134E-02
DAV:  13    -0.617791973724E+02   -0.14460E-03   -0.45498E-05   578   0.333E-02    0.597E-03
DAV:  14    -0.617792415993E+02   -0.44227E-04   -0.12838E-05   680   0.200E-02    0.409E-03
DAV:  15    -0.617792701782E+02   -0.28579E-04   -0.86010E-06   586   0.106E-02    0.276E-03
DAV:  16    -0.617792760578E+02   -0.58796E-05   -0.20932E-06   640   0.801E-03    0.106E-03
DAV:  17    -0.617792819585E+02   -0.59008E-05   -0.70903E-07   480   0.390E-03    0.654E-04
DAV:  18    -0.617792837851E+02   -0.18266E-05   -0.16648E-07   418   0.160E-03    0.534E-04
DAV:  19    -0.617792868313E+02   -0.30462E-05   -0.35136E-07   428   0.220E-03    0.207E-04
DAV:  20    -0.617792871677E+02   -0.33637E-06   -0.89608E-08   428   0.127E-03
   2 F= -.61779287E+02 E0= -.61779347E+02  d E =-.132655E+00
 trial-energy change:   -0.132655  1 .order    0.436068   -2.864679    3.736815
 step:   0.5612(harm=  0.4339)  dis= 0.07552  next Energy=   -62.551044 (dE=-0.904E+00)
 bond charge predicted
       N       E                     dE             d eps       ncg     rms          rms(c)
DAV:   1    -0.626578143296E+02   -0.87853E+00   -0.48075E+01   468   0.426E+01    0.546E+00
DAV:   2    -0.626213596537E+02    0.36455E-01   -0.23534E+00   624   0.113E+01    0.500E+00
DAV:   3    -0.625651191868E+02    0.56240E-01   -0.62450E-01   708   0.617E+00    0.267E+00
DAV:   4    -0.625597064195E+02    0.54128E-02   -0.28144E-01   738   0.408E+00    0.133E+00
DAV:   5    -0.625460469705E+02    0.13659E-01   -0.18641E-01   674   0.287E+00    0.848E-01
DAV:   6    -0.625388712934E+02    0.71757E-02   -0.47773E-02   686   0.131E+00    0.102E-01
DAV:   7    -0.625385754167E+02    0.29588E-03   -0.13266E-03   578   0.243E-01    0.601E-02
DAV:   8    -0.625384814281E+02    0.93989E-04   -0.54297E-04   718   0.157E-01    0.377E-02
DAV:   9    -0.625384444873E+02    0.36941E-04   -0.10941E-04   606   0.611E-02    0.188E-02
DAV:  10    -0.625384312127E+02    0.13275E-04   -0.17643E-04   608   0.676E-02    0.114E-02
DAV:  11    -0.625385215812E+02   -0.90369E-04   -0.15269E-04   638   0.589E-02    0.921E-03
DAV:  12    -0.625385582480E+02   -0.36667E-04   -0.20984E-05   618   0.257E-02    0.516E-03
DAV:  13    -0.625386070657E+02   -0.48818E-04   -0.11517E-05   558   0.142E-02    0.298E-03
DAV:  14    -0.625386151223E+02   -0.80566E-05   -0.10833E-06   504   0.631E-03    0.124E-03
DAV:  15    -0.625386248612E+02   -0.97389E-05   -0.13388E-06   516   0.484E-03    0.112E-03
DAV:  16    -0.625386274462E+02   -0.25850E-05   -0.25791E-07   446   0.222E-03    0.414E-04
DAV:  17    -0.625386284272E+02   -0.98098E-06   -0.15561E-07   372   0.164E-03
   3 F= -.62538628E+02 E0= -.62538628E+02  d E =-.891996E+00
 curvature:  -0.21 expect dE=-0.388E+00 dE for cont linesearch -0.109E-04
 trial: gam= 0.65250 g(F)=  0.188E+01 g(S)=  0.000E+00 ort = 0.123E-01 (trialstep = 0.838E+00)
 search vector abs. value=  0.312E+01
 bond charge predicted
       N       E                     dE             d eps       ncg     rms          rms(c)
DAV:   1    -0.623586171742E+02    0.18001E+00   -0.17159E+02   468   0.858E+01    0.130E+01
DAV:   2    -0.626265255757E+02   -0.26791E+00   -0.74882E+00   640   0.182E+01    0.110E+01
DAV:   3    -0.625751132288E+02    0.51412E-01   -0.32161E+00   658   0.106E+01    0.431E+00
DAV:   4    -0.625248006748E+02    0.50313E-01   -0.29758E+00   662   0.112E+01    0.280E+00
DAV:   5    -0.623800163885E+02    0.14478E+00   -0.66899E-01   680   0.549E+00    0.758E-01
DAV:   6    -0.623794324256E+02    0.58396E-03   -0.43101E-02   588   0.131E+00    0.333E-01
DAV:   7    -0.623778764154E+02    0.15560E-02   -0.48012E-03   636   0.527E-01    0.154E-01
DAV:   8    -0.623770593357E+02    0.81708E-03   -0.18619E-03   598   0.295E-01    0.711E-02
DAV:   9    -0.623766619277E+02    0.39741E-03   -0.11649E-03   716   0.242E-01    0.409E-02
DAV:  10    -0.623764217843E+02    0.24014E-03   -0.27295E-04   636   0.105E-01    0.160E-02
DAV:  11    -0.623764007363E+02    0.21048E-04   -0.18534E-04   682   0.738E-02    0.134E-02
DAV:  12    -0.623765171151E+02   -0.11638E-03   -0.81436E-05   662   0.437E-02    0.626E-03
DAV:  13    -0.623765907111E+02   -0.73596E-04   -0.19161E-05   578   0.241E-02    0.434E-03
DAV:  14    -0.623766295099E+02   -0.38799E-04   -0.74861E-06   548   0.150E-02    0.314E-03
DAV:  15    -0.623766403075E+02   -0.10798E-04   -0.19981E-06   526   0.731E-03    0.154E-03
DAV:  16    -0.623766435929E+02   -0.32855E-05   -0.67548E-07   416   0.387E-03    0.552E-04
DAV:  17    -0.623766446287E+02   -0.10357E-05   -0.28296E-07   408   0.255E-03    0.391E-04
DAV:  18    -0.623766452476E+02   -0.61895E-06   -0.11857E-07   370   0.156E-03
   4 F= -.62376645E+02 E0= -.62376755E+02  d E =0.161983E+00
 trial-energy change:    0.161983  1 .order    0.341175   -1.584075    2.266425
 step:   0.4033(harm=  0.3449)  dis= 0.01434  next Energy=   -62.939632 (dE=-0.401E+00)
 bond charge predicted
       N       E                     dE             d eps       ncg     rms          rms(c)
DAV:   1    -0.630147874740E+02   -0.63814E+00   -0.46067E+01   468   0.436E+01    0.703E+00
DAV:   2    -0.630021016131E+02    0.12686E-01   -0.22527E+00   632   0.108E+01    0.656E+00
DAV:   3    -0.629655025972E+02    0.36599E-01   -0.69406E-01   672   0.569E+00    0.359E+00
DAV:   4    -0.629747058133E+02   -0.92032E-02   -0.44757E-01   684   0.463E+00    0.148E+00
DAV:   5    -0.629399766937E+02    0.34729E-01   -0.27214E-01   660   0.324E+00    0.494E-01
DAV:   6    -0.629373039765E+02    0.26727E-02   -0.22119E-02   618   0.962E-01    0.939E-02
DAV:   7    -0.629372181432E+02    0.85833E-04   -0.84083E-04   624   0.206E-01    0.506E-02
DAV:   8    -0.629371971862E+02    0.20957E-04   -0.26257E-04   628   0.960E-02    0.293E-02
DAV:   9    -0.629371925951E+02    0.45910E-05   -0.87785E-05   728   0.599E-02    0.182E-02
DAV:  10    -0.629372185378E+02   -0.25943E-04   -0.95225E-05   684   0.531E-02    0.149E-02
DAV:  11    -0.629372559004E+02   -0.37363E-04   -0.53300E-05   676   0.393E-02    0.539E-03
DAV:  12    -0.629373015389E+02   -0.45638E-04   -0.19733E-05   620   0.220E-02    0.477E-03
DAV:  13    -0.629373108933E+02   -0.93544E-05   -0.34696E-06   542   0.108E-02    0.184E-03
DAV:  14    -0.629373225961E+02   -0.11703E-04   -0.12961E-06   456   0.506E-03    0.113E-03
DAV:  15    -0.629373308745E+02   -0.82784E-05   -0.13604E-06   490   0.392E-03    0.567E-04
DAV:  16    -0.629373323090E+02   -0.14344E-05   -0.21490E-07   420   0.194E-03    0.353E-04
DAV:  17    -0.629373324726E+02   -0.16368E-06   -0.82318E-08   392   0.130E-03
   5 F= -.62937332E+02 E0= -.62937420E+02  d E =-.398704E+00
 curvature:  -0.28 expect dE=-0.104E+00 dE for cont linesearch -0.507E-08
 trial: gam= 0.07110 g(F)=  0.371E+00 g(S)=  0.000E+00 ort = 0.237E-03 (trialstep = 0.751E+00)
 search vector abs. value=  0.386E+00
 bond charge predicted
       N       E                     dE             d eps       ncg     rms          rms(c)
DAV:   1    -0.630144504304E+02   -0.77118E-01   -0.55635E+01   468   0.478E+01    0.218E+00
DAV:   2    -0.632390941078E+02   -0.22464E+00   -0.31805E+00   654   0.135E+01    0.396E+00
DAV:   3    -0.631493398286E+02    0.89754E-01   -0.19882E-01   672   0.326E+00    0.268E+00
DAV:   4    -0.631299349998E+02    0.19405E-01   -0.41253E-01   632   0.347E+00    0.140E+00
DAV:   5    -0.631193966711E+02    0.10538E-01   -0.60057E-02   646   0.173E+00    0.746E-01
DAV:   6    -0.631138987217E+02    0.54979E-02   -0.31804E-02   720   0.108E+00    0.382E-01
DAV:   7    -0.631126141448E+02    0.12846E-02   -0.10062E-02   750   0.568E-01    0.110E-01
DAV:   8    -0.631122717415E+02    0.34240E-03   -0.91641E-04   598   0.185E-01    0.526E-02
DAV:   9    -0.631121535342E+02    0.11821E-03   -0.32561E-04   688   0.109E-01    0.190E-02
DAV:  10    -0.631116224067E+02    0.53113E-03   -0.15863E-04   720   0.845E-02    0.301E-02
DAV:  11    -0.631119949058E+02   -0.37250E-03   -0.47403E-05   654   0.378E-02    0.223E-02
DAV:  12    -0.631119971060E+02   -0.22003E-05   -0.65444E-05   638   0.405E-02    0.920E-03
DAV:  13    -0.631120228382E+02   -0.25732E-04   -0.13526E-05   610   0.199E-02    0.337E-03
DAV:  14    -0.631120447014E+02   -0.21863E-04   -0.46529E-06   580   0.926E-03    0.251E-03
DAV:  15    -0.631120561239E+02   -0.11423E-04   -0.16618E-06   472   0.504E-03    0.211E-03
DAV:  16    -0.631120587201E+02   -0.25962E-05   -0.11036E-06   414   0.596E-03    0.118E-03
DAV:  17    -0.631120591504E+02   -0.43026E-06   -0.26008E-07   434   0.335E-03
   6 F= -.63112059E+02 E0= -.63112059E+02  d E =-.174727E+00
 trial-energy change:   -0.174727  1 .order   -0.171929   -0.278518   -0.065340
 step:   0.9605(harm=  0.9816)  dis= 0.02312  next Energy=   -63.121217 (dE=-0.184E+00)
 bond charge predicted
       N       E                     dE             d eps       ncg     rms          rms(c)
DAV:   1    -0.631148953727E+02   -0.28367E-02   -0.43444E+00   468   0.135E+01    0.650E-01
DAV:   2    -0.631289702861E+02   -0.14075E-01   -0.20670E-01   596   0.365E+00    0.113E+00
DAV:   3    -0.631233724549E+02    0.55978E-02   -0.11241E-02   600   0.816E-01    0.798E-01
DAV:   4    -0.631216720923E+02    0.17004E-02   -0.16367E-02   652   0.736E-01    0.313E-01
DAV:   5    -0.631209643950E+02    0.70770E-03   -0.34379E-03   660   0.447E-01    0.113E-01
DAV:   6    -0.631209180399E+02    0.46355E-04   -0.99393E-04   724   0.205E-01    0.622E-02
DAV:   7    -0.631208746102E+02    0.43430E-04   -0.26227E-04   744   0.950E-02    0.238E-02
DAV:   8    -0.631208469828E+02    0.27627E-04   -0.35969E-05   590   0.435E-02    0.116E-02
DAV:   9    -0.631208398441E+02    0.71387E-05   -0.16449E-05   648   0.281E-02    0.491E-03
DAV:  10    -0.631208303817E+02    0.94624E-05   -0.11534E-05   694   0.227E-02    0.826E-03
DAV:  11    -0.631208283470E+02    0.20347E-05   -0.67892E-06   654   0.166E-02    0.259E-03
DAV:  12    -0.631208304386E+02   -0.20916E-05   -0.32294E-06   574   0.108E-02    0.152E-03
DAV:  13    -0.631208328245E+02   -0.23859E-05   -0.11553E-06   406   0.599E-03    0.176E-03
DAV:  14    -0.631208338871E+02   -0.10626E-05   -0.31973E-07   418   0.351E-03    0.101E-03
DAV:  15    -0.631208341080E+02   -0.22082E-06   -0.12071E-07   366   0.189E-03
   7 F= -.63120834E+02 E0= -.63120941E+02  d E =-.183502E+00
 curvature:  -0.51 expect dE=-0.169E+00 dE for cont linesearch -0.782E-07
 trial: gam= 0.91765 g(F)=  0.332E+00 g(S)=  0.000E+00 ort = 0.244E-03 (trialstep = 0.466E+00)
 search vector abs. value=  0.658E+00
 bond charge predicted
       N       E                     dE             d eps       ncg     rms          rms(c)
DAV:   1    -0.631378260688E+02   -0.16992E-01   -0.34470E+01   468   0.382E+01    0.172E+00
DAV:   2    -0.632506266430E+02   -0.11280E+00   -0.17088E+00   606   0.101E+01    0.310E+00
DAV:   3    -0.632162776278E+02    0.34349E-01   -0.80103E-02   582   0.212E+00    0.232E+00
DAV:   4    -0.632031122122E+02    0.13165E-01   -0.29334E-01   652   0.301E+00    0.110E+00
DAV:   5    -0.631968061732E+02    0.63060E-02   -0.35432E-02   624   0.139E+00    0.647E-01
DAV:   6    -0.631933582180E+02    0.34480E-02   -0.17382E-02   652   0.809E-01    0.357E-01
DAV:   7    -0.631919939594E+02    0.13643E-02   -0.69564E-03   688   0.495E-01    0.119E-01
DAV:   8    -0.631918086218E+02    0.18534E-03   -0.97778E-04   572   0.174E-01    0.418E-02
DAV:   9    -0.631917826783E+02    0.25944E-04   -0.15241E-04   688   0.770E-02    0.218E-02
DAV:  10    -0.631917475899E+02    0.35088E-04   -0.16530E-04   614   0.768E-02    0.263E-02
DAV:  11    -0.631917300711E+02    0.17519E-04   -0.47212E-05   686   0.418E-02    0.973E-03
DAV:  12    -0.631917215956E+02    0.84755E-05   -0.26991E-05   598   0.279E-02    0.484E-03
DAV:  13    -0.631917258457E+02   -0.42501E-05   -0.52462E-06   532   0.148E-02    0.305E-03
DAV:  14    -0.631917338692E+02   -0.80235E-05   -0.14376E-06   476   0.619E-03    0.239E-03
DAV:  15    -0.631917377124E+02   -0.38432E-05   -0.99736E-07   436   0.549E-03    0.975E-04
DAV:  16    -0.631917397185E+02   -0.20061E-05   -0.32181E-07   418   0.296E-03    0.887E-04
DAV:  17    -0.631917403815E+02   -0.66308E-06   -0.18568E-07   426   0.195E-03
   8 F= -.63191740E+02 E0= -.63191830E+02  d E =-.709063E-01
 trial-energy change:   -0.070906  1 .order   -0.066619   -0.154837    0.021599
 step:   0.4154(harm=  0.4088)  dis= 0.01693  next Energy=   -63.192905 (dE=-0.721E-01)
 bond charge predicted
       N       E                     dE             d eps       ncg     rms          rms(c)
DAV:   1    -0.631923830934E+02   -0.64337E-03   -0.40711E-01   468   0.419E+00    0.203E-01
DAV:   2    -0.631932972342E+02   -0.91414E-03   -0.15502E-02   590   0.993E-01    0.312E-01
DAV:   3    -0.631930387840E+02    0.25845E-03   -0.64903E-04   570   0.197E-01    0.231E-01
DAV:   4    -0.631929243730E+02    0.11441E-03   -0.36092E-04   572   0.130E-01    0.956E-02
DAV:   5    -0.631928863250E+02    0.38048E-04   -0.32534E-04   692   0.139E-01    0.143E-02
DAV:   6    -0.631928849732E+02    0.13518E-05   -0.16696E-05   570   0.263E-02    0.764E-03
DAV:   7    -0.631928839560E+02    0.10172E-05   -0.52534E-06   546   0.168E-02    0.592E-03
DAV:   8    -0.631928833687E+02    0.58731E-06   -0.21236E-06   510   0.104E-02
   9 F= -.63192883E+02 E0= -.63192985E+02  d E =-.720493E-01
 curvature:  -0.40 expect dE=-0.295E-01 dE for cont linesearch -0.267E-06
 trial: gam= 0.09815 g(F)=  0.740E-01 g(S)=  0.000E+00 ort =-0.664E-03 (trialstep = 0.456E+00)
 search vector abs. value=  0.802E-01
 bond charge predicted
       N       E                     dE             d eps       ncg     rms          rms(c)
DAV:   1    -0.632131897321E+02   -0.20306E-01   -0.21662E+00   468   0.895E+00    0.107E+00
DAV:   2    -0.632176132214E+02   -0.44235E-02   -0.97602E-02   594   0.237E+00    0.113E+00
DAV:   3    -0.632148338596E+02    0.27794E-02   -0.10079E-02   612   0.780E-01    0.762E-01
DAV:   4    -0.632153207121E+02   -0.48685E-03   -0.13563E-02   720   0.674E-01    0.292E-01
DAV:   5    -0.632141333178E+02    0.11874E-02   -0.89945E-03   716   0.579E-01    0.737E-02
DAV:   6    -0.632141117817E+02    0.21536E-04   -0.40217E-04   672   0.125E-01    0.296E-02
DAV:   7    -0.632141011955E+02    0.10586E-04   -0.47984E-05   660   0.524E-02    0.145E-02
DAV:   8    -0.632140926453E+02    0.85501E-05   -0.12801E-05   568   0.240E-02    0.766E-03
DAV:   9    -0.632140896662E+02    0.29791E-05   -0.17340E-05   728   0.266E-02    0.555E-03
DAV:  10    -0.632140888618E+02    0.80439E-06   -0.39767E-06   564   0.131E-02
  10 F= -.63214089E+02 E0= -.63214173E+02  d E =-.212055E-01
 trial-energy change:   -0.021205  1 .order   -0.021019   -0.033677   -0.008361
 step:   0.5980(harm=  0.6063)  dis= 0.01020  next Energy=   -63.215400 (dE=-0.225E-01)
 bond charge predicted
       N       E                     dE             d eps       ncg     rms          rms(c)
DAV:   1    -0.632153704961E+02   -0.12808E-02   -0.21098E-01   472   0.280E+00    0.343E-01
DAV:   2    -0.632158062845E+02   -0.43579E-03   -0.98564E-03   598   0.755E-01    0.362E-01
DAV:   3    -0.632155162403E+02    0.29004E-03   -0.10355E-03   604   0.250E-01    0.247E-01
DAV:   4    -0.632155618762E+02   -0.45636E-04   -0.13028E-03   744   0.209E-01    0.877E-02
DAV:   5    -0.632154555880E+02    0.10629E-03   -0.83656E-04   716   0.178E-01    0.240E-02
DAV:   6    -0.632154534412E+02    0.21468E-05   -0.53919E-05   710   0.457E-02    0.979E-03
DAV:   7    -0.632154524683E+02    0.97286E-06   -0.72017E-06   602   0.193E-02
  11 F= -.63215452E+02 E0= -.63215529E+02  d E =-.225691E-01
 curvature:  -0.33 expect dE=-0.405E-02 dE for cont linesearch -0.646E-06
 trial: gam= 0.15765 g(F)=  0.124E-01 g(S)=  0.000E+00 ort = 0.397E-03 (trialstep = 0.484E+00)
 search vector abs. value=  0.145E-01
 bond charge predicted
       N       E                     dE             d eps       ncg     rms          rms(c)
DAV:   1    -0.632173833063E+02   -0.19299E-02   -0.85296E-01   468   0.605E+00    0.235E-01
DAV:   2    -0.632183340722E+02   -0.95077E-03   -0.20235E-02   604   0.966E-01    0.167E-01
DAV:   3    -0.632182267653E+02    0.10731E-03   -0.73983E-04   642   0.229E-01    0.895E-02
DAV:   4    -0.632182190516E+02    0.77137E-05   -0.57641E-04   628   0.191E-01    0.760E-02
DAV:   5    -0.632181782032E+02    0.40848E-04   -0.35076E-04   652   0.143E-01    0.218E-02
DAV:   6    -0.632181764023E+02    0.18009E-05   -0.49675E-05   644   0.472E-02    0.885E-03
DAV:   7    -0.632181754532E+02    0.94916E-06   -0.31415E-06   592   0.116E-02
  12 F= -.63218175E+02 E0= -.63218231E+02  d E =-.272298E-02
 trial-energy change:   -0.002723  1 .order   -0.002710   -0.006013    0.000592
 step:   0.4412(harm=  0.4408)  dis= 0.00320  next Energy=   -63.218202 (dE=-0.275E-02)
 bond charge predicted
       N       E                     dE             d eps       ncg     rms          rms(c)
DAV:   1    -0.632181945720E+02   -0.18170E-04   -0.65921E-03   484   0.530E-01    0.203E-02
DAV:   2    -0.632182006795E+02   -0.61075E-05   -0.14805E-04   606   0.835E-02    0.146E-02
DAV:   3    -0.632181997321E+02    0.94734E-06   -0.70989E-06   604   0.225E-02
  13 F= -.63218200E+02 E0= -.63218257E+02  d E =-.274726E-02
 curvature:  -0.26 expect dE=-0.152E-02 dE for cont linesearch -0.627E-07
 trial: gam= 0.48505 g(F)=  0.590E-02 g(S)=  0.000E+00 ort =-0.595E-04 (trialstep = 0.476E+00)
 search vector abs. value=  0.925E-02
 bond charge predicted
       N       E                     dE             d eps       ncg     rms          rms(c)
DAV:   1    -0.632195427561E+02   -0.13421E-02   -0.40391E-01   468   0.406E+00    0.163E-01
DAV:   2    -0.632202891506E+02   -0.74639E-03   -0.90546E-03   606   0.645E-01    0.139E-01
DAV:   3    -0.632202020477E+02    0.87103E-04   -0.55165E-04   620   0.172E-01    0.785E-02
DAV:   4    -0.632201636493E+02    0.38398E-04   -0.40591E-04   686   0.148E-01    0.590E-02
DAV:   5    -0.632201325115E+02    0.31138E-04   -0.19417E-04   630   0.104E-01    0.128E-02
DAV:   6    -0.632201305269E+02    0.19847E-05   -0.14578E-05   616   0.258E-02    0.766E-03
DAV:   7    -0.632201277442E+02    0.27826E-05   -0.21926E-06   488   0.119E-02    0.491E-03
DAV:   8    -0.632201251412E+02    0.26031E-05   -0.36361E-06   592   0.139E-02    0.353E-03
DAV:   9    -0.632201248900E+02    0.25122E-06   -0.49758E-07   462   0.480E-03
  14 F= -.63220125E+02 E0= -.63220163E+02  d E =-.192516E-02
 trial-energy change:   -0.001925  1 .order   -0.001921   -0.002795   -0.001047
 step:   0.7605(harm=  0.7605)  dis= 0.00627  next Energy=   -63.220434 (dE=-0.223E-02)
 bond charge predicted
       N       E                     dE             d eps       ncg     rms          rms(c)
DAV:   1    -0.632202344038E+02   -0.10926E-03   -0.14450E-01   472   0.244E+00    0.962E-02
DAV:   2    -0.632204960392E+02   -0.26164E-03   -0.32312E-03   606   0.388E-01    0.842E-02
DAV:   3    -0.632204633627E+02    0.32677E-04   -0.19831E-04   618   0.105E-01    0.480E-02
DAV:   4    -0.632204484351E+02    0.14928E-04   -0.13514E-04   694   0.860E-02    0.347E-02
DAV:   5    -0.632204376069E+02    0.10828E-04   -0.68220E-05   634   0.612E-02    0.807E-03
DAV:   6    -0.632204367688E+02    0.83810E-06   -0.55912E-06   630   0.159E-02
  15 F= -.63220437E+02 E0= -.63220467E+02  d E =-.223704E-02
 curvature:  -0.60 expect dE=-0.763E-03 dE for cont linesearch -0.316E-07
 trial: gam= 0.20304 g(F)=  0.127E-02 g(S)=  0.000E+00 ort =-0.221E-04 (trialstep = 0.533E+00)
 search vector abs. value=  0.165E-02
 bond charge predicted
       N       E                     dE             d eps       ncg     rms          rms(c)
DAV:   1    -0.632209414461E+02   -0.50384E-03   -0.42862E-02   472   0.136E+00    0.956E-02
DAV:   2    -0.632210221337E+02   -0.80688E-04   -0.11711E-03   568   0.249E-01    0.920E-02
DAV:   3    -0.632211856421E+02   -0.16351E-03   -0.11299E-04   686   0.726E-02    0.559E-02
DAV:   4    -0.632210131555E+02    0.17249E-03   -0.98601E-05   656   0.695E-02    0.247E-02
DAV:   5    -0.632210050961E+02    0.80595E-05   -0.58281E-05   644   0.565E-02    0.110E-02
DAV:   6    -0.632210047720E+02    0.32405E-06   -0.86206E-06   628   0.203E-02
  16 F= -.63221005E+02 E0= -.63221033E+02  d E =-.568003E-03
 trial-energy change:   -0.000568  1 .order   -0.000554   -0.000676   -0.000432
 step:   1.0911(harm=  1.4774)  dis= 0.00071  next Energy=   -63.221247 (dE=-0.811E-03)
 bond charge predicted
       N       E                     dE             d eps       ncg     rms          rms(c)
DAV:   1    -0.632212661369E+02   -0.26104E-03   -0.47167E-02   472   0.143E+00    0.101E-01
DAV:   2    -0.632213563100E+02   -0.90173E-04   -0.12900E-03   564   0.262E-01    0.969E-02
DAV:   3    -0.632213387571E+02    0.17553E-04   -0.13006E-04   686   0.779E-02    0.584E-02
DAV:   4    -0.632213448344E+02   -0.60773E-05   -0.95158E-05   632   0.702E-02    0.232E-02
DAV:   5    -0.632213382638E+02    0.65706E-05   -0.51303E-05   630   0.554E-02    0.107E-02
DAV:   6    -0.632213379299E+02    0.33394E-06   -0.74104E-06   620   0.193E-02
  17 F= -.63221338E+02 E0= -.63221365E+02  d E =-.901161E-03
 curvature:  -0.80 expect dE=-0.139E-02 dE for cont linesearch -0.525E-04
 ZBRENT: increasing intervall
 opt :   2.2082  next Energy=   -63.221167 (dE=-0.730E-03)
 bond charge predicted
       N       E                     dE             d eps       ncg     rms          rms(c)
DAV:   1    -0.632209147673E+02    0.42350E-03   -0.18861E-01   468   0.286E+00    0.203E-01
DAV:   2    -0.632212658998E+02   -0.35113E-03   -0.51517E-03   562   0.524E-01    0.195E-01
DAV:   3    -0.632211934781E+02    0.72422E-04   -0.50627E-04   686   0.153E-01    0.118E-01
DAV:   4    -0.632212133110E+02   -0.19833E-04   -0.37642E-04   630   0.140E-01    0.461E-02
DAV:   5    -0.632211870532E+02    0.26258E-04   -0.20505E-04   638   0.111E-01    0.215E-02
DAV:   6    -0.632211854227E+02    0.16305E-05   -0.29283E-05   628   0.386E-02    0.789E-03
DAV:   7    -0.632211851065E+02    0.31620E-06   -0.31293E-06   508   0.129E-02
  18 F= -.63221185E+02 E0= -.63221210E+02  d E =-.748338E-03
 curvature:   2.60 expect dE= 0.187E-01 dE for cont linesearch  0.666E-03
 ZBRENT: bracketing found
 ZBRENT: interpolating
 opt :   1.4671  next Energy=   -63.221400 (dE=-0.963E-03)
 bond charge predicted
       N       E                     dE             d eps       ncg     rms          rms(c)
DAV:   1    -0.632213079797E+02   -0.12256E-03   -0.82766E-02   468   0.189E+00    0.135E-01
DAV:   2    -0.632214477450E+02   -0.13977E-03   -0.21649E-03   544   0.341E-01    0.129E-01
DAV:   3    -0.632214187984E+02    0.28947E-04   -0.21709E-04   694   0.999E-02    0.772E-02
DAV:   4    -0.632214231653E+02   -0.43670E-05   -0.17669E-04   636   0.950E-02    0.321E-02
DAV:   5    -0.632214109624E+02    0.12203E-04   -0.96976E-05   654   0.735E-02    0.137E-02
DAV:   6    -0.632214099296E+02    0.10328E-05   -0.13277E-05   620   0.258E-02    0.527E-03
DAV:   7    -0.632214096354E+02    0.29423E-06   -0.12978E-06   422   0.883E-03
  19 F= -.63221410E+02 E0= -.63221436E+02  d E =-.972867E-03
 curvature:  -0.24 expect dE=-0.723E-03 dE for cont linesearch -0.655E-08
 trial: gam= 2.33097 g(F)=  0.299E-02 g(S)=  0.000E+00 ort = 0.667E-05 (trialstep = 0.990E-01)
 search vector abs. value=  0.120E-01
 bond charge predicted
       N       E                     dE             d eps       ncg     rms          rms(c)
DAV:   1    -0.632216621166E+02   -0.25219E-03   -0.19025E-02   468   0.750E-01    0.418E-02
DAV:   2    -0.632216947605E+02   -0.32644E-04   -0.47941E-04   572   0.133E-01    0.355E-02
DAV:   3    -0.632216909962E+02    0.37643E-05   -0.30375E-05   634   0.401E-02    0.197E-02
DAV:   4    -0.632216927212E+02   -0.17250E-05   -0.26586E-05   672   0.371E-02    0.163E-02
DAV:   5    -0.632216913924E+02    0.13288E-05   -0.12561E-05   646   0.264E-02    0.298E-03
DAV:   6    -0.632216913469E+02    0.45440E-07   -0.80308E-07   368   0.668E-03
  20 F= -.63221691E+02 E0= -.63221717E+02  d E =-.281712E-03
 ZBRENT: can't locate minimum, use default step
 trial-energy change:   -0.000282  1 .order   -0.000277   -0.000297   -0.000256
 step:   0.3960(harm=  0.7182)  dis= 0.00059  next Energy=   -63.222488 (dE=-0.108E-02)
 bond charge predicted
       N       E                     dE             d eps       ncg     rms          rms(c)
DAV:   1    -0.632220331757E+02   -0.34178E-03   -0.17160E-01   468   0.226E+00    0.125E-01
DAV:   2    -0.632225119068E+02   -0.47873E-03   -0.44537E-03   596   0.407E-01    0.106E-01
DAV:   3    -0.632222944608E+02    0.21745E-03   -0.28374E-04   646   0.123E-01    0.578E-02
DAV:   4    -0.632224867054E+02   -0.19224E-03   -0.22801E-04   664   0.109E-01    0.480E-02
DAV:   5    -0.632222943620E+02    0.19234E-03   -0.10449E-04   654   0.768E-02    0.854E-03
DAV:   6    -0.632222940400E+02    0.32200E-06   -0.81750E-06   570   0.195E-02
  21 F= -.63222294E+02 E0= -.63222319E+02  d E =-.884405E-03
 curvature:  -1.04 expect dE=-0.171E-02 dE for cont linesearch -0.166E-03
 ZBRENT: increasing intervall
 opt :   0.9901  next Energy=   -63.222397 (dE=-0.987E-03)
 bond charge predicted
       N       E                     dE             d eps       ncg     rms          rms(c)
DAV:   1    -0.632215479289E+02    0.74643E-03   -0.68515E-01   468   0.451E+00    0.252E-01
DAV:   2    -0.632225699827E+02   -0.10221E-02   -0.18163E-02   596   0.821E-01    0.213E-01
DAV:   3    -0.632225933842E+02   -0.23401E-04   -0.11594E-03   630   0.250E-01    0.117E-01
DAV:   4    -0.632224630465E+02    0.13034E-03   -0.91817E-04   648   0.219E-01    0.961E-02
DAV:   5    -0.632225934692E+02   -0.13042E-03   -0.41539E-04   654   0.155E-01    0.188E-02
DAV:   6    -0.632225923346E+02    0.11346E-05   -0.37311E-05   560   0.415E-02    0.113E-02
DAV:   7    -0.632225904577E+02    0.18769E-05   -0.92990E-06   592   0.199E-02    0.531E-03
DAV:   8    -0.632225905543E+02   -0.96616E-07   -0.10643E-06   434   0.835E-03
  22 F= -.63222591E+02 E0= -.63222591E+02  d E =-.118092E-02
 curvature:  -0.65 expect dE=-0.426E-02 dE for cont linesearch -0.601E-04
 ZBRENT: bracketing found
 ZBRENT: interpolating
 opt :   0.7328  next Energy=   -63.222726 (dE=-0.132E-02)
 bond charge predicted
       N       E                     dE             d eps       ncg     rms          rms(c)
DAV:   1    -0.632225333559E+02    0.57102E-04   -0.12849E-01   468   0.195E+00    0.108E-01
DAV:   2    -0.632225676628E+02   -0.34307E-04   -0.32266E-03   598   0.348E-01    0.910E-02
DAV:   3    -0.632227220887E+02   -0.15443E-03   -0.20086E-04   638   0.105E-01    0.501E-02
DAV:   4    -0.632227289544E+02   -0.68657E-05   -0.16349E-04   638   0.935E-02    0.405E-02
DAV:   5    -0.632227188879E+02    0.10066E-04   -0.78509E-05   634   0.664E-02    0.786E-03
DAV:   6    -0.632227185500E+02    0.33796E-06   -0.61386E-06   568   0.172E-02
  23 F= -.63222719E+02 E0= -.63222719E+02  d E =-.130891E-02
 curvature:  -1.46 expect dE=-0.499E-02 dE for cont linesearch -0.539E-09
 trial: gam= 1.15037 g(F)=  0.342E-02 g(S)=  0.000E+00 ort =-0.210E-05 (trialstep = 0.140E+00)
 search vector abs. value=  0.193E-01
 bond charge predicted
       N       E                     dE             d eps       ncg     rms          rms(c)
DAV:   1    -0.632231316138E+02   -0.41273E-03   -0.38969E-02   468   0.900E-01    0.523E-02
DAV:   2    -0.632232004275E+02   -0.68814E-04   -0.88275E-04   596   0.163E-01    0.428E-02
DAV:   3    -0.632231923155E+02    0.81120E-05   -0.52020E-05   616   0.567E-02    0.224E-02
DAV:   4    -0.632231957148E+02   -0.33993E-05   -0.41376E-05   628   0.461E-02    0.177E-02
DAV:   5    -0.632231939890E+02    0.17257E-05   -0.13989E-05   624   0.284E-02    0.366E-03
DAV:   6    -0.632231938087E+02    0.18031E-06   -0.14053E-06   560   0.771E-03
  24 F= -.63223194E+02 E0= -.63223194E+02  d E =-.475259E-03
 ZBRENT: can't locate minimum, use default step
 trial-energy change:   -0.000475  1 .order   -0.000473   -0.000480   -0.000467
 step:   0.5613(harm=  5.2474)  dis= 0.00158  next Energy=   -63.231690 (dE=-0.897E-02)
 bond charge predicted
       N       E                     dE             d eps       ncg     rms          rms(c)
DAV:   1    -0.632239439591E+02   -0.74997E-03   -0.35175E-01   468   0.271E+00    0.158E-01
DAV:   2    -0.632245962961E+02   -0.65234E-03   -0.83533E-03   604   0.502E-01    0.129E-01
DAV:   3    -0.632245177544E+02    0.78542E-04   -0.50523E-04   626   0.175E-01    0.673E-02
DAV:   4    -0.632245479506E+02   -0.30196E-04   -0.37362E-04   628   0.137E-01    0.541E-02
DAV:   5    -0.632245336299E+02    0.14321E-04   -0.12424E-04   636   0.851E-02    0.113E-02
DAV:   6    -0.632245319547E+02    0.16752E-05   -0.14315E-05   616   0.240E-02    0.556E-03
DAV:   7    -0.632245313628E+02    0.59186E-06   -0.33435E-06   554   0.121E-02
  25 F= -.63224531E+02 E0= -.63224531E+02  d E =-.181281E-02
 curvature:  -2.33 expect dE=-0.738E-02 dE for cont linesearch -0.111E-02
 ZBRENT: increasing intervall
 opt :   1.4032  next Energy=   -63.226833 (dE=-0.411E-02)
 bond charge predicted
       N       E                     dE             d eps       ncg     rms          rms(c)
DAV:   1    -0.632244098671E+02    0.12209E-03   -0.14050E+00   468   0.540E+00    0.316E-01
DAV:   2    -0.632270286858E+02   -0.26188E-02   -0.34088E-02   588   0.101E+00    0.258E-01
DAV:   3    -0.632267024321E+02    0.32625E-03   -0.19692E-03   618   0.347E-01    0.135E-01
DAV:   4    -0.632268589293E+02   -0.15650E-03   -0.14877E-03   628   0.273E-01    0.108E-01
DAV:   5    -0.632268060147E+02    0.52915E-04   -0.49824E-04   634   0.172E-01    0.235E-02
DAV:   6    -0.632267975872E+02    0.84276E-05   -0.60520E-05   632   0.480E-02    0.113E-02
DAV:   7    -0.632267946513E+02    0.29359E-05   -0.14392E-05   602   0.249E-02    0.548E-03
DAV:   8    -0.632267936182E+02    0.10331E-05   -0.45055E-06   590   0.144E-02    0.389E-03
DAV:   9    -0.632267935443E+02    0.73914E-07   -0.13696E-06   514   0.719E-03
  26 F= -.63226794E+02 E0= -.63226794E+02  d E =-.407499E-02
 curvature:  -4.82 expect dE=-0.220E-01 dE for cont linesearch -0.144E-02
 ZBRENT: increasing intervall
 opt :   3.0869  next Energy=   -63.229760 (dE=-0.704E-02)
 bond charge predicted
       N       E                     dE             d eps       ncg     rms          rms(c)
DAV:   1    -0.632198102512E+02    0.69834E-02   -0.56021E+00   468   0.108E+01    0.636E-01
DAV:   2    -0.632307362200E+02   -0.10926E-01   -0.14291E-01   596   0.205E+00    0.528E-01
DAV:   3    -0.632295053610E+02    0.12309E-02   -0.81144E-03   610   0.697E-01    0.277E-01
DAV:   4    -0.632297257036E+02   -0.22034E-03   -0.62128E-03   604   0.550E-01    0.221E-01
DAV:   5    -0.632297556021E+02   -0.29898E-04   -0.19916E-03   634   0.348E-01    0.509E-02
DAV:   6    -0.632297085458E+02    0.47056E-04   -0.29141E-04   632   0.998E-02    0.219E-02
DAV:   7    -0.632296978921E+02    0.10654E-04   -0.55801E-05   610   0.498E-02    0.112E-02
DAV:   8    -0.632295156676E+02    0.18222E-03   -0.18168E-05   632   0.287E-02    0.838E-03
DAV:   9    -0.632295139624E+02    0.17052E-05   -0.57660E-06   628   0.149E-02    0.335E-03
DAV:  10    -0.632295134476E+02    0.51480E-06   -0.58534E-06   636   0.129E-02
  27 F= -.63229513E+02 E0= -.63229533E+02  d E =-.679490E-02
 curvature:  -9.95 expect dE=-0.138E+00 dE for cont linesearch -0.710E-03
 ZBRENT: increasing intervall
 opt :   6.4545  next Energy=   -63.229342 (dE=-0.662E-02)
 bond charge predicted
       N       E                     dE             d eps       ncg     rms          rms(c)
DAV:   1    -0.631868464504E+02    0.42668E-01   -0.22254E+01   468   0.216E+01    0.129E+00
DAV:   2    -0.632363702159E+02   -0.49524E-01   -0.62975E-01   596   0.424E+00    0.109E+00
DAV:   3    -0.632295475585E+02    0.68227E-02   -0.32516E-02   594   0.138E+00    0.576E-01
DAV:   4    -0.632305877940E+02   -0.10402E-02   -0.26040E-02   588   0.109E+00    0.443E-01
DAV:   5    -0.632298769674E+02    0.71083E-03   -0.77970E-03   618   0.707E-01    0.122E-01
DAV:   6    -0.632295376208E+02    0.33935E-03   -0.18070E-03   624   0.215E-01    0.350E-02
DAV:   7    -0.632296947232E+02   -0.15710E-03   -0.16941E-04   584   0.909E-02    0.225E-02
DAV:   8    -0.632296725163E+02    0.22207E-04   -0.39332E-05   636   0.419E-02    0.116E-02
DAV:   9    -0.632294734381E+02    0.19908E-03   -0.49171E-05   616   0.353E-02    0.912E-03
DAV:  10    -0.632294697283E+02    0.37098E-05   -0.16123E-05   648   0.270E-02    0.703E-03
DAV:  11    -0.632294705772E+02   -0.84890E-06   -0.95792E-06   598   0.174E-02
  28 F= -.63229471E+02 E0= -.63229510E+02  d E =-.675203E-02
 curvature:   2.40 expect dE= 0.142E+00 dE for cont linesearch  0.150E-03
 ZBRENT: bracketing found
 ZBRENT: interpolating
 opt :   4.8252  next Energy=   -63.230366 (dE=-0.765E-02)
 bond charge predicted
       N       E                     dE             d eps       ncg     rms          rms(c)
DAV:   1    -0.632219903655E+02    0.74794E-02   -0.52912E+00   468   0.104E+01    0.598E-01
DAV:   2    -0.632311770933E+02   -0.91867E-02   -0.11370E-01   602   0.190E+00    0.489E-01
DAV:   3    -0.632303231492E+02    0.85394E-03   -0.69449E-03   634   0.660E-01    0.251E-01
DAV:   4    -0.632305720457E+02   -0.24890E-03   -0.45218E-03   638   0.498E-01    0.185E-01
DAV:   5    -0.632304325976E+02    0.13945E-03   -0.15541E-03   640   0.298E-01    0.357E-02
DAV:   6    -0.632304211012E+02    0.11496E-04   -0.14185E-04   672   0.800E-02    0.181E-02
DAV:   7    -0.632304127784E+02    0.83228E-05   -0.29187E-05   578   0.370E-02    0.963E-03
DAV:   8    -0.632304078963E+02    0.48821E-05   -0.14786E-05   630   0.264E-02    0.653E-03
DAV:   9    -0.632304074947E+02    0.40162E-06   -0.28842E-06   542   0.111E-02
  29 F= -.63230407E+02 E0= -.63230433E+02  d E =-.768894E-02
 curvature: -14.27 expect dE=-0.476E+00 dE for cont linesearch -0.381E-05
 trial: gam= 9.63507 g(F)=  0.333E-01 g(S)=  0.000E+00 ort =-0.717E-04 (trialstep = 0.114E-01)
 search vector abs. value=  0.182E+01
 bond charge predicted
       N       E                     dE             d eps       ncg     rms          rms(c)
DAV:   1    -0.632309157275E+02   -0.50783E-03   -0.22133E-02   492   0.574E-01    0.365E-02
DAV:   2    -0.632309549235E+02   -0.39196E-04   -0.46465E-04   578   0.770E-02    0.197E-02
DAV:   3    -0.632309544110E+02    0.51245E-06   -0.12654E-05   562   0.164E-02    0.113E-02
DAV:   4    -0.632309589489E+02   -0.45379E-05   -0.58049E-06   558   0.112E-02    0.306E-03
DAV:   5    -0.632309594476E+02   -0.49874E-06   -0.12184E-06   482   0.757E-03
  30 F= -.63230959E+02 E0= -.63230959E+02  d E =-.551953E-03
 ZBRENT: can't locate minimum, use default step
 trial-energy change:   -0.000552  1 .order   -0.000373   -0.000372   -0.000374
 step:   0.0456(harm=  0.0456)  dis= 0.00019  next Energy=   -63.231911 (dE=-0.150E-02)
 bond charge predicted
       N       E                     dE             d eps       ncg     rms          rms(c)
DAV:   1    -0.632317328667E+02   -0.77392E-03   -0.19920E-01   468   0.172E+00    0.109E-01
DAV:   2    -0.632320866802E+02   -0.35381E-03   -0.41658E-03   546   0.231E-01    0.620E-02
DAV:   3    -0.632320659760E+02    0.20704E-04   -0.13396E-04   556   0.582E-02    0.350E-02
DAV:   4    -0.632320866778E+02   -0.20702E-04   -0.82653E-05   538   0.579E-02    0.174E-02
DAV:   5    -0.632320851471E+02    0.15307E-05   -0.28584E-05   632   0.406E-02    0.766E-03
DAV:   6    -0.632320848101E+02    0.33702E-06   -0.64270E-06   522   0.136E-02
  31 F= -.63232085E+02 E0= -.63232085E+02  d E =-.167732E-02
 curvature:  -1.91 expect dE=-0.632E-01 dE for cont linesearch -0.116E-02
 ZBRENT: increasing intervall
 opt :   0.1140  next Energy=   -63.234385 (dE=-0.398E-02)
 bond charge predicted
       N       E                     dE             d eps       ncg     rms          rms(c)
DAV:   1    -0.632328001450E+02   -0.71500E-03   -0.79615E-01   468   0.343E+00    0.219E-01
DAV:   2    -0.632342205126E+02   -0.14204E-02   -0.16961E-02   516   0.465E-01    0.125E-01
DAV:   3    -0.632341297982E+02    0.90714E-04   -0.54666E-04   532   0.115E-01    0.708E-02
DAV:   4    -0.632343817929E+02   -0.25199E-03   -0.33889E-04   566   0.113E-01    0.337E-02
DAV:   5    -0.632343744318E+02    0.73611E-05   -0.11073E-04   640   0.799E-02    0.161E-02
DAV:   6    -0.632343714121E+02    0.30197E-05   -0.28948E-05   536   0.290E-02    0.398E-03
DAV:   7    -0.632343729506E+02   -0.15385E-05   -0.31068E-06   578   0.951E-03    0.346E-03
DAV:   8    -0.632343735224E+02   -0.57178E-06   -0.90305E-07   490   0.584E-03
  32 F= -.63234374E+02 E0= -.63234374E+02  d E =-.396603E-02
 curvature:  -3.79 expect dE=-0.127E+00 dE for cont linesearch -0.236E-02
 ZBRENT: increasing intervall
 opt :   0.2508  next Energy=   -63.239035 (dE=-0.863E-02)
 bond charge predicted
       N       E                     dE             d eps       ncg     rms          rms(c)
DAV:   1    -0.632331596063E+02    0.12133E-02   -0.31804E+00   468   0.685E+00    0.439E-01
DAV:   2    -0.632390098697E+02   -0.58503E-02   -0.70148E-02   510   0.944E-01    0.255E-01
DAV:   3    -0.632386176072E+02    0.39226E-03   -0.23303E-03   518   0.236E-01    0.145E-01
DAV:   4    -0.632390435839E+02   -0.42598E-03   -0.15726E-03   572   0.232E-01    0.705E-02
DAV:   5    -0.632390079790E+02    0.35605E-04   -0.46368E-04   638   0.163E-01    0.349E-02
DAV:   6    -0.632389903246E+02    0.17654E-04   -0.14726E-04   578   0.626E-02    0.824E-03
DAV:   7    -0.632388154755E+02    0.17485E-03   -0.12803E-05   574   0.197E-02    0.704E-03
DAV:   8    -0.632388168150E+02   -0.13396E-05   -0.28670E-06   578   0.110E-02    0.375E-03
DAV:   9    -0.632388191332E+02   -0.23181E-05   -0.54809E-06   590   0.102E-02    0.291E-03
DAV:  10    -0.632388218679E+02   -0.27348E-05   -0.89900E-07   466   0.485E-03    0.151E-03
DAV:  11    -0.632388242319E+02   -0.23640E-05   -0.79123E-07   424   0.404E-03    0.621E-04
DAV:  12    -0.632388255854E+02   -0.13535E-05   -0.21291E-07   436   0.257E-03    0.388E-04
DAV:  13    -0.632388267605E+02   -0.11751E-05   -0.13213E-07   416   0.160E-03    0.313E-04
DAV:  14    -0.632388273489E+02   -0.58839E-06   -0.72568E-08   428   0.124E-03
  33 F= -.63238827E+02 E0= -.63238859E+02  d E =-.841985E-02
 curvature:  -7.49 expect dE=-0.263E+00 dE for cont linesearch -0.467E-02
 ZBRENT: increasing intervall
 opt :   0.5244  next Energy=   -63.248051 (dE=-0.176E-01)
 bond charge predicted
       N       E                     dE             d eps       ncg     rms          rms(c)
DAV:   1    -0.632242080446E+02    0.14619E-01   -0.12678E+01   468   0.137E+01    0.889E-01
DAV:   2    -0.632494947894E+02   -0.25287E-01   -0.30309E-01   512   0.195E+00    0.532E-01
DAV:   3    -0.632471267190E+02    0.23681E-02   -0.10468E-02   520   0.485E-01    0.304E-01
DAV:   4    -0.632484980191E+02   -0.13713E-02   -0.82130E-03   554   0.479E-01    0.149E-01
DAV:   5    -0.632481399411E+02    0.35808E-03   -0.19039E-03   638   0.330E-01    0.802E-02
DAV:   6    -0.632480298394E+02    0.11010E-03   -0.85796E-04   610   0.141E-01    0.176E-02
DAV:   7    -0.632480400226E+02   -0.10183E-04   -0.65646E-05   590   0.438E-02    0.146E-02
DAV:   8    -0.632480396062E+02    0.41635E-06   -0.11502E-05   568   0.221E-02    0.822E-03
DAV:   9    -0.632480424551E+02   -0.28489E-05   -0.23028E-05   582   0.211E-02    0.534E-03
DAV:  10    -0.632480487653E+02   -0.63102E-05   -0.58762E-06   586   0.135E-02    0.193E-03
DAV:  11    -0.632480513498E+02   -0.25845E-05   -0.12988E-06   498   0.603E-03    0.144E-03
DAV:  12    -0.632480538683E+02   -0.25185E-05   -0.76774E-07   420   0.453E-03    0.766E-04
DAV:  13    -0.632480551871E+02   -0.13188E-05   -0.20560E-07   426   0.306E-03    0.505E-04
DAV:  14    -0.632480583518E+02   -0.31647E-05   -0.33093E-07   418   0.215E-03    0.416E-04
DAV:  15    -0.632480589624E+02   -0.61052E-06   -0.90786E-08   432   0.134E-03
  34 F= -.63248059E+02 E0= -.63248099E+02  d E =-.176515E-01
 curvature: -14.79 expect dE=-0.602E+00 dE for cont linesearch -0.920E-02
 ZBRENT: increasing intervall
 opt :   1.0717  next Energy=   -63.266441 (dE=-0.360E-01)
 bond charge predicted
       N       E                     dE             d eps       ncg     rms          rms(c)
DAV:   1    -0.631579321274E+02    0.90126E-01   -0.50258E+01   468   0.273E+01    0.181E+00
DAV:   2    -0.632785681602E+02   -0.12064E+00   -0.14148E+00   504   0.416E+00    0.115E+00
DAV:   3    -0.632647372863E+02    0.13831E-01   -0.49509E-02   520   0.106E+00    0.658E-01
DAV:   4    -0.632685443795E+02   -0.38071E-02   -0.54930E-02   556   0.110E+00    0.357E-01
DAV:   5    -0.632672956769E+02    0.12487E-02   -0.87398E-03   638   0.700E-01    0.206E-01
DAV:   6    -0.632665228051E+02    0.77287E-03   -0.66271E-03   588   0.336E-01    0.442E-02
DAV:   7    -0.632665529627E+02   -0.30158E-04   -0.46414E-04   568   0.114E-01    0.303E-02
DAV:   8    -0.632665428127E+02    0.10150E-04   -0.38922E-05   592   0.455E-02    0.220E-02
DAV:   9    -0.632665347063E+02    0.81064E-05   -0.14463E-04   574   0.519E-02    0.109E-02
DAV:  10    -0.632665394208E+02   -0.47145E-05   -0.14051E-05   606   0.229E-02    0.607E-03
DAV:  11    -0.632665467577E+02   -0.73369E-05   -0.12561E-05   588   0.200E-02    0.219E-03
DAV:  12    -0.632665514105E+02   -0.46529E-05   -0.21287E-06   506   0.755E-03    0.128E-03
DAV:  13    -0.632665572482E+02   -0.58376E-05   -0.81550E-07   434   0.506E-03    0.154E-03
DAV:  14    -0.632665629759E+02   -0.57277E-05   -0.75617E-07   442   0.450E-03    0.733E-04
DAV:  15    -0.632665646978E+02   -0.17219E-05   -0.18297E-07   428   0.217E-03    0.510E-04
DAV:  16    -0.632665666034E+02   -0.19056E-05   -0.23690E-07   416   0.222E-03    0.372E-04
DAV:  17    -0.632665670643E+02   -0.46097E-06   -0.10188E-07   424   0.149E-03
  35 F= -.63266567E+02 E0= -.63266633E+02  d E =-.361596E-01
 curvature: -29.56 expect dE=-0.186E+01 dE for cont linesearch -0.193E-01
 ZBRENT: increasing intervall
 opt :   2.1661  next Energy=   -63.305199 (dE=-0.748E-01)
 bond charge predicted
       N       E                     dE             d eps       ncg     rms          rms(c)
DAV:   1    -0.627562465384E+02    0.51032E+00   -0.19556E+02   468   0.549E+01    0.363E+00
DAV:   2    -0.633785163425E+02   -0.62227E+00   -0.70800E+00   500   0.947E+00    0.249E+00
DAV:   3    -0.633087375277E+02    0.69779E-01   -0.22826E-01   580   0.226E+00    0.145E+00
DAV:   4    -0.633173231879E+02   -0.85857E-02   -0.34871E-01   562   0.270E+00    0.853E-01
DAV:   5    -0.633127955513E+02    0.45276E-02   -0.43948E-02   648   0.153E+00    0.543E-01
DAV:   6    -0.633072272410E+02    0.55683E-02   -0.39165E-02   602   0.953E-01    0.130E-01
DAV:   7    -0.633071770353E+02    0.50206E-04   -0.23610E-03   606   0.354E-01    0.556E-02
DAV:   8    -0.633071603876E+02    0.16648E-04   -0.38081E-04   616   0.140E-01    0.384E-02
DAV:   9    -0.633071274337E+02    0.32954E-04   -0.99555E-05   612   0.822E-02    0.258E-02
DAV:  10    -0.633070967375E+02    0.30696E-04   -0.18717E-04   662   0.885E-02    0.140E-02
DAV:  11    -0.633073885574E+02   -0.29182E-03   -0.75749E-05   700   0.548E-02    0.245E-02
DAV:  12    -0.633073878956E+02    0.66181E-06   -0.19024E-05   568   0.192E-02    0.233E-02
DAV:  13    -0.633073875450E+02    0.35061E-06   -0.21007E-05   586   0.224E-02    0.166E-02
DAV:  14    -0.633074038034E+02   -0.16258E-04   -0.32528E-05   590   0.308E-02    0.158E-02
DAV:  15    -0.633074077853E+02   -0.39820E-05   -0.13213E-05   678   0.227E-02    0.101E-02
DAV:  16    -0.633074087277E+02   -0.94234E-06   -0.26233E-06   570   0.986E-03
  36 F= -.63307409E+02 E0= -.63307409E+02  d E =-.770012E-01
 curvature: -59.16 expect dE=-0.920E+01 dE for cont linesearch -0.500E-01
 ZBRENT: increasing intervall
 opt :   4.3550  next Energy=   -63.403607 (dE=-0.173E+00)
 bond charge predicted
       N       E                     dE             d eps       ncg     rms          rms(c)
DAV:   1    -0.602122991749E+02    0.30951E+01   -0.68667E+02   468   0.102E+02    0.737E+00
DAV:   2    -0.638985199509E+02   -0.36862E+01   -0.42857E+01   578   0.260E+01    0.585E+00
DAV:   3    -0.634889687002E+02    0.40955E+00   -0.15764E+00   566   0.747E+00    0.347E+00
DAV:   4    -0.633993866547E+02    0.89582E-01   -0.10299E+00   590   0.526E+00    0.223E+00
DAV:   5    -0.634340789047E+02   -0.34692E-01   -0.60999E-01   596   0.415E+00    0.133E+00
DAV:   6    -0.634074483029E+02    0.26631E-01   -0.13912E-01   696   0.219E+00    0.554E-01
DAV:   7    -0.634054424237E+02    0.20059E-02   -0.70678E-02   634   0.147E+00    0.269E-01
DAV:   8    -0.634039073711E+02    0.15351E-02   -0.88369E-03   580   0.457E-01    0.595E-02
DAV:   9    -0.634037538202E+02    0.15355E-03   -0.81923E-04   686   0.210E-01    0.450E-02
DAV:  10    -0.634040388103E+02   -0.28499E-03   -0.23521E-04   638   0.884E-02    0.281E-02
DAV:  11    -0.634039538709E+02    0.84939E-04   -0.39951E-04   670   0.106E-01    0.298E-02
DAV:  12    -0.634039386493E+02    0.15222E-04   -0.79471E-05   704   0.647E-02    0.147E-02
DAV:  13    -0.634039630237E+02   -0.24374E-04   -0.58577E-05   596   0.467E-02    0.922E-03
DAV:  14    -0.634039919103E+02   -0.28887E-04   -0.17021E-05   630   0.286E-02    0.376E-03
DAV:  15    -0.634040166156E+02   -0.24705E-04   -0.46779E-06   538   0.120E-02    0.160E-03
DAV:  16    -0.634040428333E+02   -0.26218E-04   -0.58376E-06   594   0.101E-02    0.252E-03
DAV:  17    -0.634040519194E+02   -0.90861E-05   -0.22146E-06   460   0.869E-03    0.638E-04
DAV:  18    -0.634040533049E+02   -0.13855E-05   -0.50648E-07   434   0.400E-03    0.104E-03
DAV:  19    -0.634040535298E+02   -0.22498E-06   -0.13198E-07   394   0.227E-03
  37 F= -.63404054E+02 E0= -.63404054E+02  d E =-.173646E+00
 curvature: ****** expect dE=-0.637E+02 dE for cont linesearch -0.135E+00
 ZBRENT: increasing intervall
 opt :   8.7329  next Energy=   -63.639679 (dE=-0.409E+00)
 bond charge predicted
       N       E                     dE             d eps       ncg     rms          rms(c)
DAV:   1    -0.520722379534E+02    0.11332E+02   -0.18553E+03   468   0.150E+02    0.117E+01
DAV:   2    -0.651160405909E+02   -0.13044E+02   -0.15555E+02   656   0.517E+01    0.104E+01
DAV:   3    -0.637207305746E+02    0.13953E+01   -0.40402E+00   540   0.113E+01    0.740E+00
DAV:   4    -0.628403608384E+02    0.88037E+00   -0.66384E+00   622   0.118E+01    0.391E+00
DAV:   5    -0.631910344753E+02   -0.35067E+00   -0.30261E+00   616   0.880E+00    0.432E+00
DAV:   6    -0.629978856122E+02    0.19315E+00   -0.26696E-01   560   0.230E+00    0.308E+00
DAV:   7    -0.628409041506E+02    0.15698E+00   -0.79629E-01   622   0.364E+00    0.579E-01
DAV:   8    -0.628401983947E+02    0.70576E-03   -0.75519E-02   590   0.141E+00    0.264E-01
DAV:   9    -0.628412354690E+02   -0.10371E-02   -0.50920E-03   704   0.457E-01    0.320E-01
DAV:  10    -0.628396694770E+02    0.15660E-02   -0.66356E-03   606   0.385E-01    0.905E-02
DAV:  11    -0.628395685114E+02    0.10097E-03   -0.59666E-04   600   0.161E-01    0.401E-02
DAV:  12    -0.628397815085E+02   -0.21300E-03   -0.79640E-04   578   0.139E-01    0.547E-02
DAV:  13    -0.628397272351E+02    0.54273E-04   -0.15867E-04   564   0.897E-02    0.311E-02
DAV:  14    -0.628396721287E+02    0.55106E-04   -0.17214E-04   624   0.643E-02    0.159E-02
DAV:  15    -0.628397410621E+02   -0.68933E-04   -0.90092E-05   576   0.587E-02    0.137E-02
DAV:  16    -0.628397957421E+02   -0.54680E-04   -0.28352E-05   598   0.322E-02    0.348E-03
DAV:  17    -0.628398275048E+02   -0.31763E-04   -0.13427E-05   558   0.167E-02    0.532E-03
DAV:  18    -0.628398388094E+02   -0.11305E-04   -0.30993E-06   476   0.974E-03    0.210E-03
DAV:  19    -0.628398415464E+02   -0.27371E-05   -0.54147E-07   430   0.416E-03    0.160E-03
DAV:  20    -0.628398440323E+02   -0.24859E-05   -0.96784E-07   414   0.552E-03    0.140E-03
DAV:  21    -0.628398440800E+02   -0.47673E-07   -0.22269E-07   406   0.351E-03
  38 F= -.62839844E+02 E0= -.62839880E+02  d E =0.390563E+00
 curvature: ****** expect dE=-0.658E+03 dE for cont linesearch -0.556E+02
 ZBRENT: bracketing found
 ZBRENT: interpolating
 opt :   4.6226  next Energy=   -63.410277 (dE=-0.180E+00)
 bond charge predicted
       N       E                     dE             d eps       ncg     rms          rms(c)
DAV:   1    -0.493315042507E+02    0.13508E+02   -0.18493E+03   484   0.157E+02    0.974E+00
DAV:   2    -0.658612769821E+02   -0.16530E+02   -0.18070E+02   550   0.696E+01    0.919E+00
DAV:   3    -0.646505301533E+02    0.12107E+01   -0.93368E+00   518   0.131E+01    0.770E+00
DAV:   4    -0.640367898838E+02    0.61374E+00   -0.12196E+00   638   0.635E+00    0.608E+00
DAV:   5    -0.635437310791E+02    0.49306E+00   -0.15473E+00   626   0.502E+00    0.286E+00
DAV:   6    -0.635017176246E+02    0.42013E-01   -0.13242E+00   622   0.635E+00    0.238E+00
DAV:   7    -0.634445845160E+02    0.57133E-01   -0.91446E-01   624   0.484E+00    0.995E-01
DAV:   8    -0.634260655652E+02    0.18519E-01   -0.63411E-02   654   0.166E+00    0.531E-01
DAV:   9    -0.634194905825E+02    0.65750E-02   -0.63767E-02   660   0.119E+00    0.226E-01
DAV:  10    -0.634162672133E+02    0.32234E-02   -0.40187E-03   626   0.323E-01    0.192E-01
DAV:  11    -0.634144685353E+02    0.17987E-02   -0.32415E-03   592   0.302E-01    0.762E-02
DAV:  12    -0.634141531391E+02    0.31540E-03   -0.49375E-04   646   0.120E-01    0.618E-02
DAV:  13    -0.634142805022E+02   -0.12736E-03   -0.96962E-04   574   0.137E-01    0.298E-02
DAV:  14    -0.634146754785E+02   -0.39498E-03   -0.20074E-04   634   0.968E-02    0.184E-02
DAV:  15    -0.634151526029E+02   -0.47712E-03   -0.14400E-04   580   0.622E-02    0.193E-02
DAV:  16    -0.634153835130E+02   -0.23091E-03   -0.98727E-05   614   0.575E-02    0.122E-02
DAV:  17    -0.634154817065E+02   -0.98193E-04   -0.27675E-05   618   0.248E-02    0.858E-03
DAV:  18    -0.634155143936E+02   -0.32687E-04   -0.15044E-05   618   0.209E-02    0.248E-03
DAV:  19    -0.634155256030E+02   -0.11209E-04   -0.41985E-06   552   0.109E-02    0.306E-03
DAV:  20    -0.634155289137E+02   -0.33107E-05   -0.13524E-06   464   0.712E-03    0.161E-03
DAV:  21    -0.634155298581E+02   -0.94435E-06   -0.69841E-07   420   0.430E-03
  39 F= -.63415530E+02 E0= -.63415627E+02  d E =-.185122E+00
 curvature:  -0.02 expect dE=-0.139E-01 dE for cont linesearch -0.236E-04
 ZBRENT: bisectioning
 opt :   6.6778  next Energy=   -63.486307 (dE=-0.256E+00)
 bond charge predicted
       N       E                     dE             d eps       ncg     rms          rms(c)
DAV:   1    -0.609224836333E+02    0.24930E+01   -0.63870E+02   468   0.945E+01    0.685E+00
DAV:   2    -0.638437738618E+02   -0.29213E+01   -0.34313E+01   554   0.214E+01    0.522E+00
DAV:   3    -0.635110873399E+02    0.33269E+00   -0.10622E+00   520   0.495E+00    0.324E+00
DAV:   4    -0.634702317451E+02    0.40856E-01   -0.19105E+00   612   0.569E+00    0.185E+00
DAV:   5    -0.634729039108E+02   -0.26722E-02   -0.18956E-01   612   0.290E+00    0.130E+00
DAV:   6    -0.634416507485E+02    0.31253E-01   -0.15874E-01   680   0.169E+00    0.243E-01
DAV:   7    -0.634418626459E+02   -0.21190E-03   -0.14163E-02   720   0.817E-01    0.147E-01
DAV:   8    -0.634415410857E+02    0.32156E-03   -0.17793E-03   662   0.317E-01    0.571E-02
DAV:   9    -0.634414438962E+02    0.97190E-04   -0.36500E-04   616   0.140E-01    0.328E-02
DAV:  10    -0.634414026283E+02    0.41268E-04   -0.14477E-04   664   0.597E-02    0.220E-02
DAV:  11    -0.634413988704E+02    0.37579E-05   -0.15058E-04   624   0.615E-02    0.156E-02
DAV:  12    -0.634414179744E+02   -0.19104E-04   -0.54876E-05   638   0.531E-02    0.677E-03
DAV:  13    -0.634414440577E+02   -0.26083E-04   -0.14362E-05   530   0.218E-02    0.557E-03
DAV:  14    -0.634414686655E+02   -0.24608E-04   -0.91521E-06   584   0.185E-02    0.300E-03
DAV:  15    -0.634414936723E+02   -0.25007E-04   -0.50594E-06   556   0.109E-02    0.256E-03
DAV:  16    -0.634415021602E+02   -0.84878E-05   -0.24155E-06   518   0.792E-03    0.168E-03
DAV:  17    -0.634415084520E+02   -0.62918E-05   -0.12424E-06   414   0.599E-03    0.766E-04
DAV:  18    -0.634415092578E+02   -0.80582E-06   -0.21911E-07   446   0.278E-03
  40 F= -.63441509E+02 E0= -.63441601E+02  d E =-.211102E+00
 curvature: -66.45 expect dE=-0.878E+02 dE for cont linesearch -0.958E-01
 ZBRENT: interpolating
 opt :   5.5726  next Energy=   -63.436438 (dE=-0.206E+00)
 bond charge predicted
       N       E                     dE             d eps       ncg     rms          rms(c)
DAV:   1    -0.631754884320E+02    0.26602E+00   -0.21849E+02   468   0.578E+01    0.307E+00
DAV:   2    -0.634772503772E+02   -0.30176E+00   -0.35155E+00   488   0.793E+00    0.193E+00
DAV:   3    -0.634530435934E+02    0.24207E-01   -0.84368E-02   610   0.152E+00    0.104E+00
DAV:   4    -0.634525784295E+02    0.46516E-03   -0.81815E-02   588   0.166E+00    0.453E-01
DAV:   5    -0.634504848020E+02    0.20936E-02   -0.16576E-02   620   0.933E-01    0.209E-01
DAV:   6    -0.634499481896E+02    0.53661E-03   -0.90300E-03   628   0.453E-01    0.116E-01
DAV:   7    -0.634497387526E+02    0.20944E-03   -0.82411E-04   664   0.195E-01    0.555E-02
DAV:   8    -0.634496632652E+02    0.75487E-04   -0.38892E-04   622   0.940E-02    0.271E-02
DAV:   9    -0.634496404467E+02    0.22818E-04   -0.11962E-04   684   0.777E-02    0.148E-02
DAV:  10    -0.634496540858E+02   -0.13639E-04   -0.33372E-05   616   0.293E-02    0.115E-02
DAV:  11    -0.634496872346E+02   -0.33149E-04   -0.30969E-05   620   0.258E-02    0.665E-03
DAV:  12    -0.634497001415E+02   -0.12907E-04   -0.10656E-05   590   0.194E-02    0.324E-03
DAV:  13    -0.634497326042E+02   -0.32463E-04   -0.31117E-06   494   0.840E-03    0.274E-03
DAV:  14    -0.634497433596E+02   -0.10755E-04   -0.68699E-07   420   0.482E-03    0.222E-03
DAV:  15    -0.634497531579E+02   -0.97983E-05   -0.77308E-07   376   0.444E-03    0.146E-03
DAV:  16    -0.634497579171E+02   -0.47592E-05   -0.73705E-07   418   0.407E-03    0.109E-03
DAV:  17    -0.634497591886E+02   -0.12715E-05   -0.22968E-07   390   0.316E-03    0.121E-03
DAV:  18    -0.634497595509E+02   -0.36233E-06   -0.20435E-07   420   0.218E-03
  41 F= -.63449760E+02 E0= -.63449869E+02  d E =-.219352E+00
 curvature: -14.50 expect dE=-0.133E+02 dE for cont linesearch -0.498E-02
 ZBRENT: bisectioning
 opt :   6.1252  next Energy=   -63.460511 (dE=-0.230E+00)
 bond charge predicted
       N       E                     dE             d eps       ncg     rms          rms(c)
DAV:   1    -0.633521351806E+02    0.97624E-01   -0.53338E+01   468   0.284E+01    0.170E+00
DAV:   2    -0.634642934703E+02   -0.11216E+00   -0.12607E+00   494   0.456E+00    0.110E+00
DAV:   3    -0.634547542800E+02    0.95392E-02   -0.43037E-02   530   0.105E+00    0.646E-01
DAV:   4    -0.634571614300E+02   -0.24071E-02   -0.49869E-02   612   0.111E+00    0.360E-01
DAV:   5    -0.634565264216E+02    0.63501E-03   -0.94101E-03   630   0.663E-01    0.194E-01
DAV:   6    -0.634558347567E+02    0.69166E-03   -0.51258E-03   670   0.321E-01    0.513E-02
DAV:   7    -0.634558339518E+02    0.80496E-06   -0.35372E-04   640   0.143E-01    0.273E-02
DAV:   8    -0.634558373595E+02   -0.34077E-05   -0.64174E-05   600   0.513E-02    0.189E-02
DAV:   9    -0.634558325451E+02    0.48144E-05   -0.62151E-05   696   0.455E-02    0.791E-03
DAV:  10    -0.634558391273E+02   -0.65821E-05   -0.13765E-05   606   0.183E-02    0.727E-03
DAV:  11    -0.634558508869E+02   -0.11760E-04   -0.12187E-05   622   0.163E-02    0.420E-03
DAV:  12    -0.634558546454E+02   -0.37585E-05   -0.27057E-06   510   0.119E-02    0.142E-03
DAV:  13    -0.634558617294E+02   -0.70840E-05   -0.14676E-06   434   0.653E-03    0.199E-03
DAV:  14    -0.634558658695E+02   -0.41401E-05   -0.37081E-07   420   0.331E-03    0.166E-03
DAV:  15    -0.634558695614E+02   -0.36919E-05   -0.67651E-07   434   0.469E-03    0.757E-04
DAV:  16    -0.634558736135E+02   -0.40521E-05   -0.60397E-07   422   0.386E-03    0.628E-04
DAV:  17    -0.634558740902E+02   -0.47670E-06   -0.11031E-07   462   0.219E-03
  42 F= -.63455874E+02 E0= -.63455874E+02  d E =-.225467E+00
 curvature: -31.32 expect dE=-0.347E+02 dE for cont linesearch -0.196E-03
 trial: gam=32.03643 g(F)=  0.111E+01 g(S)=  0.000E+00 ort =-0.338E-02 (trialstep = 0.120E-02)
 search vector abs. value=  0.187E+04
 bond charge predicted
       N       E                     dE             d eps       ncg     rms          rms(c)
DAV:   1    -0.634565810891E+02   -0.70748E-03   -0.27510E-01   474   0.202E+00    0.115E-01
DAV:   2    -0.634569550518E+02   -0.37396E-03   -0.46141E-03   502   0.290E-01    0.694E-02
DAV:   3    -0.634566823617E+02    0.27269E-03   -0.12776E-04   618   0.655E-02    0.416E-02
DAV:   4    -0.634569910574E+02   -0.30870E-03   -0.20696E-04   612   0.954E-02    0.356E-02
DAV:   5    -0.634569778594E+02    0.13198E-04   -0.71018E-05   656   0.574E-02    0.166E-02
DAV:   6    -0.634566970886E+02    0.28077E-03   -0.18782E-05   642   0.309E-02    0.125E-02
DAV:   7    -0.634566963456E+02    0.74300E-06   -0.41973E-06   536   0.139E-02
  43 F= -.63456696E+02 E0= -.63456807E+02  d E =-.822255E-03
 ZBRENT: can't locate minimum, use default step
 trial-energy change:   -0.000822  1 .order   -0.001161   -0.001201   -0.001120
 step:   0.0048(harm=  0.0177)  dis= 0.00048  next Energy=   -63.464739 (dE=-0.886E-02)
 bond charge predicted
       N       E                     dE             d eps       ncg     rms          rms(c)
DAV:   1    -0.634561367574E+02    0.56033E-03   -0.24724E+00   468   0.606E+00    0.347E-01
DAV:   2    -0.634597498231E+02   -0.36131E-02   -0.43058E-02   494   0.890E-01    0.212E-01
DAV:   3    -0.634593554505E+02    0.39437E-03   -0.12475E-03   574   0.203E-01    0.117E-01
DAV:   4    -0.634598329284E+02   -0.47748E-03   -0.14106E-03   620   0.237E-01    0.759E-02
DAV:   5    -0.634595070605E+02    0.32587E-03   -0.44797E-04   620   0.138E-01    0.233E-02
DAV:   6    -0.634595033585E+02    0.37020E-05   -0.79447E-05   608   0.524E-02    0.984E-03
DAV:   7    -0.634595042214E+02   -0.86294E-06   -0.10052E-05   638   0.236E-02    0.617E-03
DAV:   8    -0.634595065757E+02   -0.23542E-05   -0.70867E-06   590   0.177E-02    0.424E-03
DAV:   9    -0.634595080826E+02   -0.15070E-05   -0.13523E-06   496   0.791E-03    0.257E-03
DAV:  10    -0.634595099344E+02   -0.18518E-05   -0.16497E-06   406   0.796E-03    0.138E-03
DAV:  11    -0.634595108821E+02   -0.94777E-06   -0.38025E-07   432   0.422E-03
  44 F= -.63459511E+02 E0= -.63459621E+02  d E =-.363679E-02
 curvature:  -6.44 expect dE=-0.721E+01 dE for cont linesearch -0.176E-02
 ZBRENT: increasing intervall
 opt :   0.0120  next Energy=   -63.463102 (dE=-0.723E-02)
 bond charge predicted
       N       E                     dE             d eps       ncg     rms          rms(c)
DAV:   1    -0.634472446015E+02    0.12265E-01   -0.98599E+00   472   0.121E+01    0.697E-01
DAV:   2    -0.634627577133E+02   -0.15513E-01   -0.18389E-01   486   0.183E+00    0.440E-01
DAV:   3    -0.634620075235E+02    0.75019E-03   -0.54345E-03   566   0.418E-01    0.246E-01
DAV:   4    -0.634626159358E+02   -0.60841E-03   -0.54270E-03   606   0.427E-01    0.131E-01
DAV:   5    -0.634624932163E+02    0.12272E-03   -0.14658E-03   610   0.250E-01    0.516E-02
DAV:   6    -0.634624508310E+02    0.42385E-04   -0.36582E-04   630   0.983E-02    0.197E-02
DAV:   7    -0.634627029014E+02   -0.25207E-03   -0.46112E-05   618   0.517E-02    0.199E-02
DAV:   8    -0.634626995936E+02    0.33078E-05   -0.65178E-06   560   0.198E-02    0.143E-02
DAV:   9    -0.634624629326E+02    0.23666E-03   -0.36539E-05   670   0.398E-02    0.165E-02
DAV:  10    -0.634624594666E+02    0.34661E-05   -0.85875E-06   592   0.224E-02    0.120E-02
DAV:  11    -0.634624601150E+02   -0.64842E-06   -0.79657E-06   528   0.159E-02
  45 F= -.63462460E+02 E0= -.63462562E+02  d E =-.658602E-02
 curvature: -13.12 expect dE=-0.149E+02 dE for cont linesearch -0.121E-03
 trial: gam= 0.01445 g(F)=  0.114E+01 g(S)=  0.000E+00 ort = 0.131E+00 (trialstep = 0.337E-02)
 search vector abs. value=  0.153E+01
 bond charge predicted
       N       E                     dE             d eps       ncg     rms          rms(c)
DAV:   1    -0.634662657657E+02   -0.38063E-02   -0.35251E-03   504   0.317E-01    0.215E-02
DAV:   2    -0.634662698279E+02   -0.40622E-05   -0.11985E-04   632   0.761E-02    0.210E-02
DAV:   3    -0.634662688236E+02    0.10043E-05   -0.12019E-05   638   0.261E-02    0.107E-02
DAV:   4    -0.634662707078E+02   -0.18842E-05   -0.44223E-06   536   0.174E-02    0.808E-03
DAV:   5    -0.634662720458E+02   -0.13380E-05   -0.23755E-06   478   0.123E-02    0.156E-03
DAV:   6    -0.634662727355E+02   -0.68968E-06   -0.35158E-07   424   0.440E-03
  46 F= -.63466273E+02 E0= -.63466377E+02  d E =-.381262E-02
 ZBRENT: can't locate minimum, use default step
 trial-energy change:   -0.003813  1 .order   -0.003806   -0.003832   -0.003779
 step:   0.0135(harm=  0.2404)  dis= 0.00091  next Energy=   -63.599324 (dE=-0.137E+00)
 bond charge predicted
       N       E                     dE             d eps       ncg     rms          rms(c)
DAV:   1    -0.634773547073E+02   -0.11083E-01   -0.31888E-02   480   0.953E-01    0.625E-02
DAV:   2    -0.634773824157E+02   -0.27708E-04   -0.96435E-04   600   0.211E-01    0.574E-02
DAV:   3    -0.634773706253E+02    0.11790E-04   -0.80176E-05   608   0.699E-02    0.291E-02
DAV:   4    -0.634773715594E+02   -0.93415E-06   -0.34762E-05   588   0.472E-02    0.216E-02
DAV:   5    -0.634773705808E+02    0.97867E-06   -0.19374E-05   590   0.339E-02    0.439E-03
DAV:   6    -0.634773709169E+02   -0.33613E-06   -0.13814E-06   440   0.856E-03
  47 F= -.63477371E+02 E0= -.63477476E+02  d E =-.149108E-01
 curvature:  -0.01 expect dE=-0.137E-01 dE for cont linesearch -0.102E-01
 ZBRENT: increasing intervall
 opt :   0.0337  next Energy=   -63.498121 (dE=-0.357E-01)
 bond charge predicted
       N       E                     dE             d eps       ncg     rms          rms(c)
DAV:   1    -0.634980820409E+02   -0.20711E-01   -0.12747E-01   480   0.191E+00    0.125E-01
DAV:   2    -0.634981939181E+02   -0.11188E-03   -0.38794E-03   596   0.422E-01    0.114E-01
DAV:   3    -0.634981455105E+02    0.48408E-04   -0.32301E-04   596   0.140E-01    0.579E-02
DAV:   4    -0.634981434098E+02    0.21007E-05   -0.14148E-04   608   0.947E-02    0.431E-02
DAV:   5    -0.634981358636E+02    0.75463E-05   -0.79422E-05   618   0.681E-02    0.898E-03
DAV:   6    -0.634981359222E+02   -0.58649E-07   -0.65452E-06   592   0.174E-02
  48 F= -.63498136E+02 E0= -.63498244E+02  d E =-.356758E-01
 curvature:  -0.03 expect dE=-0.233E-01 dE for cont linesearch -0.173E-01
 ZBRENT: increasing intervall
 opt :   0.0740  next Energy=   -63.534022 (dE=-0.716E-01)
 bond charge predicted
       N       E                     dE             d eps       ncg     rms          rms(c)
DAV:   1    -0.635338751470E+02   -0.35739E-01   -0.50838E-01   476   0.381E+00    0.250E-01
DAV:   2    -0.635343428770E+02   -0.46773E-03   -0.15613E-02   604   0.843E-01    0.228E-01
DAV:   3    -0.635341495857E+02    0.19329E-03   -0.13211E-03   610   0.282E-01    0.115E-01
DAV:   4    -0.635341380062E+02    0.11580E-04   -0.59764E-04   612   0.192E-01    0.878E-02
DAV:   5    -0.635341006248E+02    0.37381E-04   -0.33213E-04   614   0.138E-01    0.185E-02
DAV:   6    -0.635340992472E+02    0.13776E-05   -0.27808E-05   640   0.356E-02    0.716E-03
DAV:   7    -0.635340986358E+02    0.61140E-06   -0.37759E-06   514   0.121E-02
  49 F= -.63534099E+02 E0= -.63534210E+02  d E =-.716385E-01
 curvature:  -0.06 expect dE=-0.330E-01 dE for cont linesearch -0.239E-01
 ZBRENT: increasing intervall
 opt :   0.1548  next Energy=   -63.584151 (dE=-0.122E+00)
 bond charge predicted
       N       E                     dE             d eps       ncg     rms          rms(c)
DAV:   1    -0.635838441052E+02   -0.49745E-01   -0.20220E+00   476   0.761E+00    0.502E-01
DAV:   2    -0.635858175044E+02   -0.19734E-02   -0.63200E-02   606   0.169E+00    0.455E-01
DAV:   3    -0.635850370579E+02    0.78045E-03   -0.53515E-03   592   0.566E-01    0.229E-01
DAV:   4    -0.635850023708E+02    0.34687E-04   -0.25495E-03   614   0.392E-01    0.180E-01
DAV:   5    -0.635848345927E+02    0.16778E-03   -0.14137E-03   602   0.283E-01    0.390E-02
DAV:   6    -0.635848262910E+02    0.83018E-05   -0.12231E-04   644   0.747E-02    0.150E-02
DAV:   7    -0.635848226716E+02    0.36193E-05   -0.18917E-05   552   0.259E-02    0.676E-03
DAV:   8    -0.635848222916E+02    0.38001E-06   -0.49697E-06   512   0.170E-02
  50 F= -.63584822E+02 E0= -.63584934E+02  d E =-.122362E+00
 curvature:  -0.12 expect dE=-0.306E-01 dE for cont linesearch -0.166E-01
 ZBRENT: increasing intervall
 opt :   0.3163  next Energy=   -63.604328 (dE=-0.142E+00)
 bond charge predicted
       N       E                     dE             d eps       ncg     rms          rms(c)
DAV:   1    -0.636043982584E+02   -0.19576E-01   -0.79906E+00   468   0.151E+01    0.101E+00
DAV:   2    -0.636135703438E+02   -0.91721E-02   -0.26008E-01   596   0.337E+00    0.906E-01
DAV:   3    -0.636104169237E+02    0.31534E-02   -0.21690E-02   610   0.114E+00    0.460E-01
DAV:   4    -0.636104849391E+02   -0.68015E-04   -0.11645E-02   614   0.822E-01    0.376E-01
DAV:   5    -0.636097170270E+02    0.76791E-03   -0.62901E-03   620   0.592E-01    0.832E-02
DAV:   6    -0.636096794126E+02    0.37614E-04   -0.53389E-04   656   0.156E-01    0.324E-02
DAV:   7    -0.636096576373E+02    0.21775E-04   -0.84724E-05   546   0.554E-02    0.143E-02
DAV:   8    -0.636096548992E+02    0.27380E-05   -0.24014E-05   652   0.356E-02    0.512E-03
DAV:   9    -0.636096551469E+02   -0.24768E-06   -0.44456E-06   528   0.160E-02
  51 F= -.63609655E+02 E0= -.63609655E+02  d E =-.147195E+00
 curvature:  -0.14 expect dE=-0.356E-01 dE for cont linesearch -0.179E-02
 ZBRENT: bracketing found
 ZBRENT: interpolating
 opt :   0.2788  next Energy=   -63.612280 (dE=-0.150E+00)
 bond charge predicted
       N       E                     dE             d eps       ncg     rms          rms(c)
DAV:   1    -0.636117939557E+02   -0.21391E-02   -0.43072E-01   468   0.353E+00    0.229E-01
DAV:   2    -0.636122863118E+02   -0.49236E-03   -0.12889E-02   598   0.774E-01    0.209E-01
DAV:   3    -0.636121349221E+02    0.15139E-03   -0.10283E-03   596   0.249E-01    0.108E-01
DAV:   4    -0.636121373037E+02   -0.23816E-05   -0.53440E-04   612   0.178E-01    0.820E-02
DAV:   5    -0.636121008303E+02    0.36473E-04   -0.29089E-04   620   0.127E-01    0.181E-02
DAV:   6    -0.636120993456E+02    0.14846E-05   -0.24935E-05   662   0.337E-02    0.661E-03
DAV:   7    -0.636120993440E+02    0.15966E-08   -0.39165E-06   488   0.124E-02
  52 F= -.63612099E+02 E0= -.63612202E+02  d E =-.149639E+00
 curvature:  -0.21 expect dE=-0.395E-01 dE for cont linesearch -0.122E-04
 trial: gam= 0.17634 g(F)=  0.192E+00 g(S)=  0.000E+00 ort =-0.954E-02 (trialstep = 0.584E-01)
 search vector abs. value=  0.236E+00
 bond charge predicted
       N       E                     dE             d eps       ncg     rms          rms(c)
DAV:   1    -0.636226043711E+02   -0.10505E-01   -0.14323E-01   468   0.246E+00    0.130E-01
DAV:   2    -0.636229453717E+02   -0.34100E-03   -0.54906E-03   604   0.556E-01    0.180E-01
DAV:   3    -0.636228444242E+02    0.10095E-03   -0.31305E-04   582   0.129E-01    0.127E-01
DAV:   4    -0.636228040299E+02    0.40394E-04   -0.41091E-04   608   0.131E-01    0.615E-02
DAV:   5    -0.636227755161E+02    0.28514E-04   -0.19343E-04   672   0.102E-01    0.202E-02
DAV:   6    -0.636227723432E+02    0.31728E-05   -0.38033E-05   664   0.415E-02    0.910E-03
DAV:   7    -0.636227707452E+02    0.15980E-05   -0.83884E-06   542   0.193E-02    0.533E-03
DAV:   8    -0.636227691903E+02    0.15549E-05   -0.18283E-06   410   0.103E-02    0.460E-03
DAV:   9    -0.636227688145E+02    0.37582E-06   -0.15846E-06   392   0.957E-03
  53 F= -.63622769E+02 E0= -.63622868E+02  d E =-.106695E-01
 ZBRENT: can't locate minimum, use default step
 trial-energy change:   -0.010669  1 .order   -0.010676   -0.011118   -0.010234
 step:   0.2338(harm=  0.7352)  dis= 0.01366  next Energy=   -63.682027 (dE=-0.699E-01)
 bond charge predicted
       N       E                     dE             d eps       ncg     rms          rms(c)
DAV:   1    -0.636483401460E+02   -0.25571E-01   -0.12897E+00   468   0.739E+00    0.390E-01
DAV:   2    -0.636512790477E+02   -0.29389E-02   -0.47955E-02   598   0.164E+00    0.530E-01
DAV:   3    -0.636500187582E+02    0.12603E-02   -0.26938E-03   594   0.380E-01    0.378E-01
DAV:   4    -0.636497807708E+02    0.23799E-03   -0.45461E-03   598   0.439E-01    0.206E-01
DAV:   5    -0.636494152401E+02    0.36553E-03   -0.21222E-03   672   0.318E-01    0.783E-02
DAV:   6    -0.636493625641E+02    0.52676E-04   -0.49551E-04   680   0.155E-01    0.327E-02
DAV:   7    -0.636493461706E+02    0.16393E-04   -0.11918E-04   632   0.681E-02    0.157E-02
DAV:   8    -0.636493370110E+02    0.91597E-05   -0.19767E-05   670   0.298E-02    0.127E-02
DAV:   9    -0.636493360960E+02    0.91503E-06   -0.34311E-05   660   0.413E-02    0.848E-03
DAV:  10    -0.636493405163E+02   -0.44203E-05   -0.70786E-06   584   0.177E-02    0.540E-03
DAV:  11    -0.636493501748E+02   -0.96585E-05   -0.71216E-06   620   0.138E-02    0.141E-03
DAV:  12    -0.636493542094E+02   -0.40346E-05   -0.73603E-07   428   0.505E-03    0.130E-03
DAV:  13    -0.636493602843E+02   -0.60749E-05   -0.71638E-07   430   0.335E-03    0.187E-03
DAV:  14    -0.636493631398E+02   -0.28554E-05   -0.31440E-07   418   0.268E-03    0.402E-04
DAV:  15    -0.636493647781E+02   -0.16383E-05   -0.19188E-07   424   0.217E-03    0.100E-03
DAV:  16    -0.636493658659E+02   -0.10878E-05   -0.17117E-07   418   0.165E-03    0.273E-04
DAV:  17    -0.636493659693E+02   -0.10342E-06   -0.58833E-08   440   0.125E-03
  54 F= -.63649366E+02 E0= -.63649462E+02  d E =-.372666E-01
 curvature:  -0.21 expect dE=-0.206E-01 dE for cont linesearch -0.144E-01
 ZBRENT: increasing intervall
 opt :   0.5845  next Energy=   -63.677987 (dE=-0.659E-01)
 bond charge predicted
       N       E                     dE             d eps       ncg     rms          rms(c)
DAV:   1    -0.636721520605E+02   -0.22786E-01   -0.51577E+00   468   0.148E+01    0.793E-01
DAV:   2    -0.636835724609E+02   -0.11420E-01   -0.18768E-01   588   0.324E+00    0.105E+00
DAV:   3    -0.636803592000E+02    0.32133E-02   -0.11046E-02   598   0.769E-01    0.739E-01
DAV:   4    -0.636795590843E+02    0.80012E-03   -0.16992E-02   640   0.842E-01    0.415E-01
DAV:   5    -0.636784491348E+02    0.11099E-02   -0.97117E-03   668   0.646E-01    0.156E-01
DAV:   6    -0.636782161845E+02    0.23295E-03   -0.16762E-03   712   0.294E-01    0.573E-02
DAV:   7    -0.636781563158E+02    0.59869E-04   -0.29865E-04   576   0.110E-01    0.295E-02
DAV:   8    -0.636781160974E+02    0.40218E-04   -0.69098E-05   632   0.580E-02    0.194E-02
DAV:   9    -0.636781129868E+02    0.31106E-05   -0.10763E-04   664   0.727E-02    0.151E-02
DAV:  10    -0.636781257190E+02   -0.12732E-04   -0.25548E-05   638   0.329E-02    0.872E-03
DAV:  11    -0.636781451490E+02   -0.19430E-04   -0.17470E-05   658   0.227E-02    0.311E-03
DAV:  12    -0.636781593014E+02   -0.14152E-04   -0.25278E-06   548   0.821E-03    0.205E-03
DAV:  13    -0.636781780395E+02   -0.18738E-04   -0.28496E-06   554   0.612E-03    0.119E-03
DAV:  14    -0.636781828542E+02   -0.48147E-05   -0.35232E-07   432   0.283E-03    0.865E-04
DAV:  15    -0.636781884018E+02   -0.55477E-05   -0.87129E-07   454   0.283E-03    0.352E-04
DAV:  16    -0.636781898719E+02   -0.14701E-05   -0.19777E-07   432   0.192E-03    0.235E-04
DAV:  17    -0.636781902338E+02   -0.36181E-06   -0.77450E-08   432   0.125E-03
  55 F= -.63678190E+02 E0= -.63678190E+02  d E =-.660909E-01
 curvature:  -0.41 expect dE=-0.286E-01 dE for cont linesearch -0.192E-02
 ZBRENT: extrapolating
 opt :   0.7070  next Energy=   -63.680227 (dE=-0.681E-01)
 bond charge predicted
       N       E                     dE             d eps       ncg     rms          rms(c)
DAV:   1    -0.636795639577E+02   -0.13741E-02   -0.62982E-01   468   0.513E+00    0.281E-01
DAV:   2    -0.636809608591E+02   -0.13969E-02   -0.22797E-02   604   0.114E+00    0.374E-01
DAV:   3    -0.636805083885E+02    0.45247E-03   -0.14186E-03   590   0.282E-01    0.259E-01
DAV:   4    -0.636800876777E+02    0.42071E-03   -0.18880E-03   616   0.283E-01    0.127E-01
DAV:   5    -0.636799740358E+02    0.11364E-03   -0.95017E-04   640   0.207E-01    0.461E-02
DAV:   6    -0.636799518204E+02    0.22215E-04   -0.13591E-04   640   0.803E-02    0.190E-02
DAV:   7    -0.636799433448E+02    0.84755E-05   -0.25417E-05   582   0.336E-02    0.850E-03
DAV:   8    -0.636799388714E+02    0.44734E-05   -0.64450E-06   558   0.179E-02    0.482E-03
DAV:   9    -0.636799390850E+02   -0.21352E-06   -0.49995E-06   490   0.166E-02
  56 F= -.63679939E+02 E0= -.63680042E+02  d E =-.678397E-01
 curvature:  -0.44 expect dE=-0.393E-01 dE for cont linesearch -0.246E-06
 trial: gam= 0.42790 g(F)=  0.904E-01 g(S)=  0.000E+00 ort = 0.366E-03 (trialstep = 0.188E+00)
 search vector abs. value=  0.134E+00
 bond charge predicted
       N       E                     dE             d eps       ncg     rms          rms(c)
DAV:   1    -0.636937566049E+02   -0.13818E-01   -0.10115E+00   468   0.635E+00    0.354E-01
DAV:   2    -0.636955901898E+02   -0.18336E-02   -0.25068E-02   592   0.109E+00    0.367E-01
DAV:   3    -0.636954362990E+02    0.15389E-03   -0.77782E-04   628   0.207E-01    0.265E-01
DAV:   4    -0.636953969528E+02    0.39346E-04   -0.72406E-04   638   0.202E-01    0.119E-01
DAV:   5    -0.636953242511E+02    0.72702E-04   -0.72680E-04   704   0.199E-01    0.366E-02
DAV:   6    -0.636953149801E+02    0.92709E-05   -0.13331E-04   620   0.763E-02    0.187E-02
DAV:   7    -0.636953133017E+02    0.16785E-05   -0.47347E-06   504   0.154E-02    0.133E-02
DAV:   8    -0.636953127693E+02    0.53239E-06   -0.11301E-05   574   0.229E-02    0.236E-03
DAV:   9    -0.636953132033E+02   -0.43401E-06   -0.23734E-06   560   0.972E-03
  57 F= -.63695313E+02 E0= -.63695313E+02  d E =-.153741E-01
 trial-energy change:   -0.015374  1 .order   -0.015149   -0.017033   -0.013266
 step:   0.5209(harm=  0.8508)  dis= 0.02081  next Energy=   -63.708286 (dE=-0.283E-01)
 bond charge predicted
       N       E                     dE             d eps       ncg     rms          rms(c)
DAV:   1    -0.637077226931E+02   -0.12410E-01   -0.31639E+00   468   0.112E+01    0.616E-01
DAV:   2    -0.637136302481E+02   -0.59076E-02   -0.78334E-02   592   0.192E+00    0.635E-01
DAV:   3    -0.637130847402E+02    0.54551E-03   -0.25717E-03   604   0.389E-01    0.458E-01
DAV:   4    -0.637129411765E+02    0.14356E-03   -0.20306E-03   640   0.365E-01    0.188E-01
DAV:   5    -0.637127608451E+02    0.18033E-03   -0.20499E-03   688   0.343E-01    0.655E-02
DAV:   6    -0.637127291586E+02    0.31686E-04   -0.33264E-04   622   0.119E-01    0.317E-02
DAV:   7    -0.637127190803E+02    0.10078E-04   -0.26201E-05   584   0.369E-02    0.137E-02
DAV:   8    -0.637127186080E+02    0.47234E-06   -0.14981E-05   606   0.257E-02    0.215E-03
DAV:   9    -0.637127194051E+02   -0.79710E-06   -0.11242E-06   438   0.739E-03
[...]
DAV:   2    -0.637223276501E+02   -0.76229E-03   -0.18614E-02   560   0.905E-01    0.199E-01
DAV:   3    -0.637222130750E+02    0.11458E-03   -0.10357E-03   640   0.244E-01    0.108E-01
DAV:   4    -0.637222048280E+02    0.82469E-05   -0.84516E-04   664   0.225E-01    0.999E-02
DAV:   5    -0.637221369325E+02    0.67896E-04   -0.44636E-04   660   0.167E-01    0.197E-02
DAV:   6    -0.637221370541E+02   -0.12158E-06   -0.34880E-05   614   0.399E-02    0.111E-02
DAV:   7    -0.637221356675E+02    0.13866E-05   -0.88740E-06   582   0.190E-02    0.558E-03
DAV:   8    -0.637221357447E+02   -0.77172E-07   -0.25275E-06   456   0.124E-02
  61 F= -.63722136E+02 E0= -.63722222E+02  d E =-.314332E-02
 trial-energy change:   -0.003143  1 .order   -0.003203   -0.007282    0.000877
 step:   0.2896(harm=  0.2910)  dis= 0.00430  next Energy=   -63.722185 (dE=-0.319E-02)
 bond charge predicted
       N       E                     dE             d eps       ncg     rms          rms(c)
DAV:   1    -0.637221788656E+02   -0.43198E-04   -0.88198E-03   480   0.594E-01    0.284E-02
DAV:   2    -0.637221901628E+02   -0.11297E-04   -0.23841E-04   560   0.103E-01    0.227E-02
DAV:   3    -0.637221889679E+02    0.11950E-05   -0.15232E-05   636   0.293E-02    0.120E-02
DAV:   4    -0.637221894855E+02   -0.51764E-06   -0.10085E-05   630   0.250E-02    0.109E-02
DAV:   5    -0.637221894069E+02    0.78568E-07   -0.49517E-06   594   0.181E-02
  62 F= -.63722189E+02 E0= -.63722276E+02  d E =-.319698E-02
 curvature:  -0.20 expect dE=-0.395E-03 dE for cont linesearch -0.151E-07
 trial: gam= 0.08256 g(F)=  0.197E-02 g(S)=  0.000E+00 ort = 0.482E-04 (trialstep = 0.319E+00)
 search vector abs. value=  0.219E-02
 bond charge predicted
       N       E                     dE             d eps       ncg     rms          rms(c)
DAV:   1    -0.637226569006E+02   -0.46742E-03   -0.43887E-02   472   0.143E+00    0.858E-02
DAV:   2    -0.637227895967E+02   -0.13270E-03   -0.22700E-03   598   0.406E-01    0.136E-01
DAV:   3    -0.637227417112E+02    0.47886E-04   -0.98518E-05   586   0.767E-02    0.105E-01
DAV:   4    -0.637227283077E+02    0.13404E-04   -0.29732E-04   680   0.112E-01    0.380E-02
DAV:   5    -0.637227142184E+02    0.14089E-04   -0.71736E-05   644   0.595E-02    0.159E-02
DAV:   6    -0.637227116914E+02    0.25269E-05   -0.26484E-05   656   0.331E-02    0.761E-03
DAV:   7    -0.637227113088E+02    0.38263E-06   -0.64817E-06   592   0.161E-02
  63 F= -.63722711E+02 E0= -.63722794E+02  d E =-.521902E-03
 trial-energy change:   -0.000522  1 .order   -0.000517   -0.000630   -0.000405
 step:   0.7650(harm=  0.8925)  dis= 0.00301  next Energy=   -63.723007 (dE=-0.818E-03)
 bond charge predicted
       N       E                     dE             d eps       ncg     rms          rms(c)
DAV:   1    -0.637229606577E+02   -0.24897E-03   -0.86169E-02   468   0.200E+00    0.120E-01
DAV:   2    -0.637232245930E+02   -0.26394E-03   -0.45115E-03   598   0.571E-01    0.190E-01
DAV:   3    -0.637231260379E+02    0.98555E-04   -0.20827E-04   586   0.111E-01    0.145E-01
DAV:   4    -0.637231022850E+02    0.23753E-04   -0.56927E-04   694   0.154E-01    0.560E-02
DAV:   5    -0.637230727460E+02    0.29539E-04   -0.15409E-04   660   0.858E-02    0.223E-02
DAV:   6    -0.637230673188E+02    0.54271E-05   -0.48122E-05   680   0.453E-02    0.112E-02
DAV:   7    -0.637230661957E+02    0.11231E-05   -0.12083E-05   624   0.221E-02    0.440E-03
DAV:   8    -0.637230656388E+02    0.55695E-06   -0.98272E-07   414   0.732E-03
  64 F= -.63723066E+02 E0= -.63723142E+02  d E =-.876232E-03
 curvature:  -0.47 expect dE=-0.395E-03 dE for cont linesearch -0.196E-04
 ZBRENT: extrapolating
 opt :   0.9042  next Energy=   -63.723087 (dE=-0.897E-03)
 bond charge predicted
       N       E                     dE             d eps       ncg     rms          rms(c)
DAV:   1    -0.637230773915E+02   -0.11196E-04   -0.84069E-03   472   0.626E-01    0.372E-02
DAV:   2    -0.637231033389E+02   -0.25947E-04   -0.44484E-04   598   0.179E-01    0.598E-02
DAV:   3    -0.637230937043E+02    0.96346E-05   -0.19969E-05   586   0.345E-02    0.461E-02
DAV:   4    -0.637230914239E+02    0.22804E-05   -0.64760E-05   678   0.518E-02    0.180E-02
DAV:   5    -0.637230884446E+02    0.29793E-05   -0.15109E-05   642   0.273E-02    0.780E-03
DAV:   6    -0.637230877536E+02    0.69104E-06   -0.57618E-06   534   0.156E-02
  65 F= -.63723088E+02 E0= -.63723162E+02  d E =-.898347E-03
 curvature:  -0.50 expect dE=-0.562E-03 dE for cont linesearch -0.151E-08
 trial: gam= 0.56677 g(F)=  0.111E-02 g(S)=  0.000E+00 ort =-0.256E-05 (trialstep = 0.436E+00)
 search vector abs. value=  0.181E-02
 bond charge predicted
       N       E                     dE             d eps       ncg     rms          rms(c)
DAV:   1    -0.637234780002E+02   -0.38956E-03   -0.22725E-02   472   0.780E-01    0.515E-02
DAV:   2    -0.637235139975E+02   -0.35997E-04   -0.46627E-04   516   0.132E-01    0.385E-02
DAV:   3    -0.637235112833E+02    0.27142E-05   -0.49539E-05   646   0.487E-02    0.197E-02
DAV:   4    -0.637235120903E+02   -0.80698E-06   -0.40771E-05   660   0.452E-02    0.136E-02
DAV:   5    -0.637235101795E+02    0.19108E-05   -0.95266E-06   658   0.233E-02    0.434E-03
DAV:   6    -0.637235102231E+02   -0.43581E-07   -0.15863E-06   420   0.938E-03
  66 F= -.63723510E+02 E0= -.63723587E+02  d E =-.422470E-03
 trial-energy change:   -0.000422  1 .order   -0.000412   -0.000485   -0.000340
 step:   0.9662(harm=  1.4622)  dis= 0.00212  next Energy=   -63.723735 (dE=-0.648E-03)
 bond charge predicted
       N       E                     dE             d eps       ncg     rms          rms(c)
DAV:   1    -0.637237816820E+02   -0.27150E-03   -0.33694E-02   472   0.950E-01    0.624E-02
DAV:   2    -0.637238343702E+02   -0.52688E-04   -0.69486E-04   514   0.163E-01    0.479E-02
DAV:   3    -0.637238293758E+02    0.49944E-05   -0.73397E-05   654   0.586E-02    0.245E-02
DAV:   4    -0.637238307540E+02   -0.13782E-05   -0.62769E-05   652   0.553E-02    0.174E-02
DAV:   5    -0.637238276697E+02    0.30843E-05   -0.15433E-05   672   0.293E-02    0.557E-03
DAV:   6    -0.637238276505E+02    0.19244E-07   -0.31100E-06   510   0.125E-02
  67 F= -.63723828E+02 E0= -.63723907E+02  d E =-.739897E-03
 curvature:  -0.91 expect dE=-0.136E-02 dE for cont linesearch -0.688E-04
 ZBRENT: increasing intervall
 opt :   2.0268  next Energy=   -63.723784 (dE=-0.696E-03)
 bond charge predicted
       N       E                     dE             d eps       ncg     rms          rms(c)
DAV:   1    -0.637236213558E+02    0.20631E-03   -0.13484E-01   468   0.190E+00    0.124E-01
DAV:   2    -0.637238350606E+02   -0.21370E-03   -0.27709E-03   506   0.324E-01    0.941E-02
DAV:   3    -0.637238154599E+02    0.19601E-04   -0.29673E-04   652   0.117E-01    0.482E-02
DAV:   4    -0.637238202206E+02   -0.47607E-05   -0.24909E-04   678   0.111E-01    0.346E-02
DAV:   5    -0.637238076669E+02    0.12554E-04   -0.62320E-05   680   0.580E-02    0.109E-02
DAV:   6    -0.637238073391E+02    0.32781E-06   -0.12743E-05   710   0.244E-02    0.478E-03
DAV:   7    -0.637238069635E+02    0.37552E-06   -0.29748E-06   516   0.124E-02
  68 F= -.63723807E+02 E0= -.63723893E+02  d E =-.719210E-03
 curvature:   0.59 expect dE= 0.363E-02 dE for cont linesearch  0.667E-04
 ZBRENT: bracketing found
 ZBRENT: interpolating
 opt :   1.4417  next Energy=   -63.723915 (dE=-0.828E-03)
 bond charge predicted
       N       E                     dE             d eps       ncg     rms          rms(c)
DAV:   1    -0.637238674434E+02   -0.60104E-04   -0.40971E-02   468   0.105E+00    0.689E-02
DAV:   2    -0.637239324553E+02   -0.65012E-04   -0.82495E-04   536   0.178E-01    0.523E-02
DAV:   3    -0.637239285046E+02    0.39506E-05   -0.92026E-05   654   0.663E-02    0.269E-02
DAV:   4    -0.637239311915E+02   -0.26869E-05   -0.75015E-05   646   0.609E-02    0.183E-02
DAV:   5    -0.637239278815E+02    0.33100E-05   -0.17516E-05   678   0.315E-02    0.597E-03
DAV:   6    -0.637239279239E+02   -0.42401E-07   -0.34343E-06   528   0.131E-02
  69 F= -.63723928E+02 E0= -.63724011E+02  d E =-.840170E-03
 curvature:  -0.77 expect dE=-0.231E-02 dE for cont linesearch -0.128E-07
 trial: gam= 2.69784 g(F)=  0.300E-02 g(S)=  0.000E+00 ort = 0.549E-05 (trialstep = 0.712E-01)
 search vector abs. value=  0.162E-01
 bond charge predicted
       N       E                     dE             d eps       ncg     rms          rms(c)
DAV:   1    -0.637241243412E+02   -0.19646E-03   -0.11125E-02   472   0.447E-01    0.249E-02
DAV:   2    -0.637241426060E+02   -0.18265E-04   -0.23603E-04   514   0.647E-02    0.135E-02
DAV:   3    -0.637241415095E+02    0.10965E-05   -0.61441E-06   532   0.172E-02    0.806E-03
DAV:   4    -0.637241419566E+02   -0.44714E-06   -0.52912E-06   616   0.186E-02
  70 F= -.63724142E+02 E0= -.63724226E+02  d E =-.214033E-03
 ZBRENT: can't locate minimum, use default step
 trial-energy change:   -0.000214  1 .order   -0.000206   -0.000214   -0.000198
 step:   0.2848(harm=  0.9206)  dis= 0.00079  next Energy=   -63.725314 (dE=-0.139E-02)
 bond charge predicted
       N       E                     dE             d eps       ncg     rms          rms(c)
DAV:   1    -0.637245289044E+02   -0.38739E-03   -0.10010E-01   468   0.134E+00    0.755E-02
DAV:   2    -0.637246960285E+02   -0.16712E-03   -0.21710E-03   530   0.196E-01    0.413E-02
DAV:   3    -0.637246860327E+02    0.99957E-05   -0.60394E-05   638   0.524E-02    0.242E-02
DAV:   4    -0.637246903612E+02   -0.43285E-05   -0.55526E-05   670   0.569E-02    0.174E-02
DAV:   5    -0.637246876978E+02    0.26634E-05   -0.23517E-05   664   0.379E-02    0.466E-03
DAV:   6    -0.637246874502E+02    0.24764E-06   -0.19617E-06   494   0.850E-03
  71 F= -.63724687E+02 E0= -.63724774E+02  d E =-.759526E-03
 curvature:  -1.09 expect dE=-0.202E-02 dE for cont linesearch -0.304E-03
 ZBRENT: increasing intervall
 opt :   0.7120  next Energy=   -63.725317 (dE=-0.139E-02)
 bond charge predicted
       N       E                     dE             d eps       ncg     rms          rms(c)
DAV:   1    -0.637246931615E+02   -0.54637E-05   -0.40061E-01   468   0.268E+00    0.150E-01
DAV:   2    -0.637253752750E+02   -0.68211E-03   -0.88497E-03   530   0.394E-01    0.827E-02
DAV:   3    -0.637253323087E+02    0.42966E-04   -0.24802E-04   632   0.104E-01    0.490E-02
DAV:   4    -0.637253503836E+02   -0.18075E-04   -0.22520E-04   672   0.114E-01    0.346E-02
DAV:   5    -0.637253399414E+02    0.10442E-04   -0.94978E-05   664   0.762E-02    0.965E-03
DAV:   6    -0.637253386434E+02    0.12981E-05   -0.90180E-06   574   0.175E-02    0.390E-03
DAV:   7    -0.637253385074E+02    0.13593E-06   -0.14428E-06   448   0.839E-03
  72 F= -.63725339E+02 E0= -.63725431E+02  d E =-.141058E-02
 curvature:  -2.26 expect dE=-0.577E-02 dE for cont linesearch -0.739E-04
 ZBRENT: increasing intervall
 opt :   1.5664  next Energy=   -63.724766 (dE=-0.839E-03)
 bond charge predicted
       N       E                     dE             d eps       ncg     rms          rms(c)
DAV:   1    -0.637221883529E+02    0.31503E-02   -0.15983E+00   468   0.536E+00    0.302E-01
DAV:   2    -0.637249611342E+02   -0.27728E-02   -0.36352E-02   522   0.794E-01    0.166E-01
DAV:   3    -0.637247799402E+02    0.18119E-03   -0.10248E-03   614   0.205E-01    0.992E-02
DAV:   4    -0.637248585612E+02   -0.78621E-04   -0.93031E-04   670   0.226E-01    0.685E-02
DAV:   5    -0.637248186882E+02    0.39873E-04   -0.38361E-04   664   0.152E-01    0.206E-02
DAV:   6    -0.637248113265E+02    0.73617E-05   -0.44571E-05   608   0.363E-02    0.741E-03
DAV:   7    -0.637248106675E+02    0.65892E-06   -0.60334E-06   584   0.157E-02
  73 F= -.63724811E+02 E0= -.63724916E+02  d E =-.882744E-03
 curvature:  17.50 expect dE= 0.229E+00 dE for cont linesearch  0.496E-02
 ZBRENT: bracketing found
 ZBRENT: interpolating
 opt :   0.9285  next Energy=   -63.725417 (dE=-0.149E-02)
 bond charge predicted
       N       E                     dE             d eps       ncg     rms          rms(c)
DAV:   1    -0.637242020316E+02    0.60929E-03   -0.89264E-01   468   0.401E+00    0.220E-01
DAV:   2    -0.637257026353E+02   -0.15006E-02   -0.18699E-02   524   0.589E-01    0.122E-01
DAV:   3    -0.637254355244E+02    0.26711E-03   -0.56758E-04   630   0.173E-01    0.721E-02
DAV:   4    -0.637254597187E+02   -0.24194E-04   -0.46674E-04   654   0.174E-01    0.506E-02
DAV:   5    -0.637254441140E+02    0.15605E-04   -0.21166E-04   672   0.112E-01    0.153E-02
DAV:   6    -0.637254410848E+02    0.30292E-05   -0.19724E-05   680   0.318E-02    0.661E-03
DAV:   7    -0.637254410618E+02    0.23033E-07   -0.52864E-06   560   0.140E-02
  74 F= -.63725441E+02 E0= -.63725537E+02  d E =-.151314E-02
 curvature:  -0.28 expect dE=-0.115E-02 dE for cont linesearch -0.445E-08
 trial: gam= 1.35580 g(F)=  0.414E-02 g(S)=  0.000E+00 ort =-0.161E-04 (trialstep = 0.116E+00)
 search vector abs. value=  0.339E-01
 bond charge predicted
       N       E                     dE             d eps       ncg     rms          rms(c)
DAV:   1    -0.637258560728E+02   -0.41499E-03   -0.38506E-02   472   0.878E-01    0.590E-02
DAV:   2    -0.637259220284E+02   -0.65956E-04   -0.81185E-04   580   0.140E-01    0.433E-02
DAV:   3    -0.637259181319E+02    0.38965E-05   -0.49045E-05   638   0.472E-02    0.207E-02
DAV:   4    -0.637259206698E+02   -0.25379E-05   -0.42492E-05   622   0.434E-02    0.158E-02
DAV:   5    -0.637259197667E+02    0.90308E-06   -0.10989E-05   622   0.221E-02    0.387E-03
DAV:   6    -0.637259195831E+02    0.18363E-06   -0.14621E-06   456   0.985E-03
  75 F= -.63725920E+02 E0= -.63726015E+02  d E =-.478521E-03
 ZBRENT: can't locate minimum, use default step
 trial-energy change:   -0.000479  1 .order   -0.000456   -0.000478   -0.000433
 step:   0.4642(harm=  1.2347)  dis= 0.00085  next Energy=   -63.727986 (dE=-0.254E-02)
 bond charge predicted
       N       E                     dE             d eps       ncg     rms          rms(c)
DAV:   1    -0.637264834947E+02   -0.56373E-03   -0.34668E-01   468   0.264E+00    0.178E-01
DAV:   2    -0.637270911408E+02   -0.60765E-03   -0.75350E-03   574   0.426E-01    0.130E-01
DAV:   3    -0.637270554077E+02    0.35733E-04   -0.45199E-04   638   0.143E-01    0.632E-02
DAV:   4    -0.637270816758E+02   -0.26268E-04   -0.37309E-04   624   0.129E-01    0.480E-02
DAV:   5    -0.637270746669E+02    0.70089E-05   -0.96744E-05   602   0.656E-02    0.118E-02
DAV:   6    -0.637270741265E+02    0.54045E-06   -0.16713E-05   678   0.298E-02    0.761E-03
DAV:   7    -0.637270739126E+02    0.21382E-06   -0.47912E-06   564   0.170E-02
  76 F= -.63727074E+02 E0= -.63727165E+02  d E =-.163285E-02
 curvature:  -2.67 expect dE=-0.498E-02 dE for cont linesearch -0.525E-03
 ZBRENT: increasing intervall
 opt :   1.1606  next Energy=   -63.728070 (dE=-0.263E-02)
 bond charge predicted
       N       E                     dE             d eps       ncg     rms          rms(c)
DAV:   1    -0.637257417542E+02    0.13324E-02   -0.13870E+00   468   0.528E+00    0.358E-01
DAV:   2    -0.637281948302E+02   -0.24531E-02   -0.30688E-02   558   0.859E-01    0.263E-01
DAV:   3    -0.637280435639E+02    0.15127E-03   -0.18319E-03   628   0.287E-01    0.129E-01
DAV:   4    -0.637281747809E+02   -0.13122E-03   -0.15293E-03   632   0.259E-01    0.980E-02
DAV:   5    -0.637281475184E+02    0.27262E-04   -0.41416E-04   596   0.135E-01    0.254E-02
DAV:   6    -0.637281447103E+02    0.28081E-05   -0.74157E-05   678   0.631E-02    0.160E-02
DAV:   7    -0.637281433493E+02    0.13610E-05   -0.21842E-05   588   0.355E-02    0.557E-03
DAV:   8    -0.637281474609E+02   -0.41115E-05   -0.21345E-06   470   0.103E-02    0.280E-03
DAV:   9    -0.637281544896E+02   -0.70287E-05   -0.18243E-06   502   0.793E-03    0.181E-03
DAV:  10    -0.637281575656E+02   -0.30760E-05   -0.50561E-07   432   0.406E-03    0.102E-03
DAV:  11    -0.637281662993E+02   -0.87337E-05   -0.25169E-06   542   0.661E-03    0.223E-03
DAV:  12    -0.637281689205E+02   -0.26213E-05   -0.49370E-07   430   0.409E-03    0.117E-03
DAV:  13    -0.637281707634E+02   -0.18429E-05   -0.53743E-07   436   0.356E-03    0.419E-04
DAV:  14    -0.637281717634E+02   -0.10000E-05   -0.14725E-07   430   0.225E-03    0.414E-04
DAV:  15    -0.637281725813E+02   -0.81787E-06   -0.89512E-08   428   0.123E-03
  77 F= -.63728173E+02 E0= -.63728255E+02  d E =-.273152E-02
 curvature:  -5.07 expect dE=-0.546E-02 dE for cont linesearch -0.767E-05
 ZBRENT: extrapolating
 opt :   1.2276  next Energy=   -63.728180 (dE=-0.274E-02)
 bond charge predicted
       N       E                     dE             d eps       ncg     rms          rms(c)
DAV:   1    -0.637281677158E+02    0.40476E-05   -0.12872E-02   478   0.509E-01    0.342E-02
DAV:   2    -0.637281902014E+02   -0.22486E-04   -0.27506E-04   552   0.818E-02    0.251E-02
DAV:   3    -0.637281893076E+02    0.89381E-06   -0.16348E-05   614   0.272E-02    0.121E-02
DAV:   4    -0.637281905257E+02   -0.12181E-05   -0.13735E-05   616   0.248E-02    0.915E-03
DAV:   5    -0.637281903455E+02    0.18016E-06   -0.35311E-06   478   0.127E-02
  78 F= -.63728190E+02 E0= -.63728272E+02  d E =-.274928E-02
 curvature:  -5.01 expect dE=-0.588E-02 dE for cont linesearch -0.662E-07
 trial: gam= 0.23145 g(F)=  0.117E-02 g(S)=  0.000E+00 ort =-0.212E-04 (trialstep = 0.338E+00)
 search vector abs. value=  0.298E-02
 bond charge predicted
       N       E                     dE             d eps       ncg     rms          rms(c)
DAV:   1    -0.637284770740E+02   -0.28655E-03   -0.10923E-02   468   0.670E-01    0.354E-02
DAV:   2    -0.637284850796E+02   -0.80056E-05   -0.24762E-04   598   0.124E-01    0.348E-02
DAV:   3    -0.637284801968E+02    0.48828E-05   -0.31124E-05   628   0.433E-02    0.178E-02
DAV:   4    -0.637284802617E+02   -0.64901E-07   -0.14606E-05   636   0.281E-02    0.112E-02
DAV:   5    -0.637284791717E+02    0.10900E-05   -0.64227E-06   500   0.198E-02    0.311E-03
DAV:   6    -0.637284792045E+02   -0.32815E-07   -0.10095E-06   432   0.775E-03
  79 F= -.63728479E+02 E0= -.63728563E+02  d E =-.288859E-03
 trial-energy change:   -0.000289  1 .order   -0.000280   -0.000395   -0.000164
 step:   0.5149(harm=  0.5794)  dis= 0.00074  next Energy=   -63.728523 (dE=-0.333E-03)
 bond charge predicted
       N       E                     dE             d eps       ncg     rms          rms(c)
DAV:   1    -0.637285378097E+02   -0.58638E-04   -0.29720E-03   480   0.349E-01    0.188E-02
DAV:   2    -0.637285396888E+02   -0.18791E-05   -0.71478E-05   604   0.676E-02    0.191E-02
DAV:   3    -0.637285381292E+02    0.15596E-05   -0.90032E-06   582   0.236E-02    0.968E-03
DAV:   4    -0.637285382833E+02   -0.15404E-06   -0.43531E-06   572   0.151E-02
  80 F= -.63728538E+02 E0= -.63728623E+02  d E =-.347938E-03
 curvature:  -0.69 expect dE=-0.481E-03 dE for cont linesearch -0.340E-05
 trial: gam= 0.49320 g(F)=  0.700E-03 g(S)=  0.000E+00 ort = 0.122E-03 (trialstep = 0.374E+00)
 search vector abs. value=  0.154E-02
 bond charge predicted
       N       E                     dE             d eps       ncg     rms          rms(c)
DAV:   1    -0.637287169591E+02   -0.17883E-03   -0.18475E-02   468   0.910E-01    0.357E-02
DAV:   2    -0.637287469659E+02   -0.30007E-04   -0.44373E-04   590   0.149E-01    0.286E-02
DAV:   3    -0.637287429614E+02    0.40046E-05   -0.28862E-05   622   0.422E-02    0.159E-02
DAV:   4    -0.637287417228E+02    0.12385E-05   -0.19104E-05   664   0.343E-02    0.123E-02
DAV:   5    -0.637287409063E+02    0.81652E-06   -0.90278E-06   580   0.236E-02
  81 F= -.63728741E+02 E0= -.63728829E+02  d E =-.202623E-03
 trial-energy change:   -0.000203  1 .order   -0.000197   -0.000284   -0.000110
 step:   0.5544(harm=  0.6083)  dis= 0.00152  next Energy=   -63.728768 (dE=-0.230E-03)
 reached required accuracy - stopping structural energy minimisation
 writing wavefunctions
