LAMMPS (2 Aug 2023)
OMP_NUM_THREADS environment is not set. Defaulting to 1 thread. (src/src/comm.cpp:98)
  using 1 OpenMP thread(s) per MPI task
Lattice spacing in x,y,z = 1.6795962 1.6795962 1.6795962
Created orthogonal box = (0 0 0) to (33.591924 33.591924 33.591924)
  4 by 2 by 3 MPI processor grid
Created 32000 atoms
  using lattice units in orthogonal box = (0 0 0) to (33.591924 33.591924 33.591924)
  create_atoms CPU = 0.013 seconds
Generated 0 of 0 mixed pair_coeff terms from geometric mixing rule
Neighbor list info ...
  update: every = 20 steps, delay = 0 steps, check = no
  max neighbors/atom: 2000, page size: 100000
  master list distance cutoff = 2.8
  ghost atom cutoff = 2.8
  binsize = 1.4, bins = 24 24 24
  1 neighbor lists, perpetual/occasional/extra = 1 0 0
  (1) pair lj/cut, perpetual
      attributes: half, newton on
      pair build: half/bin/atomonly/newton
      stencil: half/bin/3d
      bin: standard
Setting up Verlet run ...
  Unit style    : lj
  Current step  : 0
  Time step     : 0.005
Per MPI rank memory allocation (min/avg/max) = 2.689 | 2.699 | 2.714 Mbytes
   Step          Temp          E_pair         E_mol          TotEng         Press     
         0   1.44          -6.7733681      0             -4.6134356     -5.0197073    
       100   0.7574531     -5.7585055      0             -4.6223613      0.20726105   
Loop time of 0.119441 on 24 procs for 100 steps with 32000 atoms

Performance: 361683.503 tau/day, 837.230 timesteps/s, 26.791 Matom-step/s
98.6% CPU use with 24 MPI tasks x 1 OpenMP threads

MPI task timing breakdown:
Section |  min time  |  avg time  |  max time  |%varavg| %total
---------------------------------------------------------------
Pair    | 0.081337   | 0.085997   | 0.089553   |   0.7 | 72.00
Neigh   | 0.012479   | 0.013094   | 0.013534   |   0.2 | 10.96
Comm    | 0.014553   | 0.018503   | 0.023862   |   1.8 | 15.49
Output  | 5.3952e-05 | 6.3805e-05 | 7.2242e-05 |   0.0 |  0.05
Modify  | 0.0013717  | 0.0014601  | 0.0015177  |   0.1 |  1.22
Other   |            | 0.000324   |            |       |  0.27

Nlocal:        1333.33 ave        1369 max        1287 min
Histogram: 1 2 2 1 2 4 4 3 4 1
Nghost:        3223.54 ave        3277 max        3182 min
Histogram: 2 0 3 9 4 2 0 0 2 2
Neighs:          50118 ave       52254 max       48331 min
Histogram: 1 3 1 5 6 1 2 4 0 1

Total # of neighbors = 1202833
Ave neighs/atom = 37.588531
Neighbor list builds = 5
Dangerous builds not checked
Total wall time: 0:00:00
